  44  44   1   0
  0.3734657E+02  0.5900260E-09  0.5900260E-09  0.4720208E-08  0.5000000E-15
  1.000000000000000E-004
  CAR 
 unknown system                          
      8.77236320    -15.31699021  301      2.44890793      1.00000000
    -15.317  0.0000E+00  0.0000E+00
    -15.237  0.0000E+00  0.0000E+00
    -15.156  0.0000E+00  0.0000E+00
    -15.076  0.0000E+00  0.0000E+00
    -14.996  0.0000E+00  0.0000E+00
    -14.916  0.0000E+00  0.0000E+00
    -14.835  0.0000E+00  0.0000E+00
    -14.755  0.0000E+00  0.0000E+00
    -14.675  0.0000E+00  0.0000E+00
    -14.594  0.0000E+00  0.0000E+00
    -14.514  0.0000E+00  0.0000E+00
    -14.434  0.0000E+00  0.0000E+00
    -14.353  0.0000E+00  0.0000E+00
    -14.273  0.0000E+00  0.0000E+00
    -14.193  0.1106E+03  0.1338E+01
    -14.113  0.2053E+03  0.2778E+02
    -14.032  0.1681E+04  0.1296E+03
    -13.952  0.1867E+04  0.1842E+03
    -13.872  0.5234E+02  0.2199E+03
    -13.791  0.0000E+00  0.2200E+03
    -13.711  0.0000E+00  0.2200E+03
    -13.631  0.0000E+00  0.2200E+03
    -13.550  0.0000E+00  0.2200E+03
    -13.470  0.0000E+00  0.2200E+03
    -13.390  0.0000E+00  0.2200E+03
    -13.310  0.0000E+00  0.2200E+03
    -13.229  0.0000E+00  0.2200E+03
    -13.149  0.0000E+00  0.2200E+03
    -13.069  0.0000E+00  0.2200E+03
    -12.988  0.0000E+00  0.2200E+03
    -12.908  0.0000E+00  0.2200E+03
    -12.828  0.0000E+00  0.2200E+03
    -12.747  0.0000E+00  0.2200E+03
    -12.667  0.0000E+00  0.2200E+03
    -12.587  0.0000E+00  0.2200E+03
    -12.507  0.0000E+00  0.2200E+03
    -12.426  0.0000E+00  0.2200E+03
    -12.346  0.0000E+00  0.2200E+03
    -12.266  0.0000E+00  0.2200E+03
    -12.185  0.0000E+00  0.2200E+03
    -12.105  0.0000E+00  0.2200E+03
    -12.025  0.0000E+00  0.2200E+03
    -11.944  0.0000E+00  0.2200E+03
    -11.864  0.0000E+00  0.2200E+03
    -11.784  0.0000E+00  0.2200E+03
    -11.704  0.0000E+00  0.2200E+03
    -11.623  0.0000E+00  0.2200E+03
    -11.543  0.0000E+00  0.2200E+03
    -11.463  0.0000E+00  0.2200E+03
    -11.382  0.0000E+00  0.2200E+03
    -11.302  0.0000E+00  0.2200E+03
    -11.222  0.0000E+00  0.2200E+03
    -11.142  0.0000E+00  0.2200E+03
    -11.061  0.0000E+00  0.2200E+03
    -10.981  0.6872E+00  0.2200E+03
    -10.901  0.3098E+01  0.2201E+03
    -10.820  0.4698E+01  0.2205E+03
    -10.740  0.5610E+01  0.2209E+03
    -10.660  0.7025E+01  0.2214E+03
    -10.579  0.7965E+01  0.2220E+03
    -10.499  0.1302E+02  0.2228E+03
    -10.419  0.1210E+02  0.2239E+03
    -10.339  0.1509E+02  0.2249E+03
    -10.258  0.1158E+02  0.2261E+03
    -10.178  0.1403E+02  0.2271E+03
    -10.098  0.1049E+02  0.2282E+03
    -10.017  0.1923E+02  0.2294E+03
     -9.937  0.1549E+02  0.2310E+03
     -9.857  0.2544E+02  0.2325E+03
     -9.776  0.2412E+02  0.2349E+03
     -9.696  0.1629E+02  0.2376E+03
     -9.616  0.5285E+02  0.2407E+03
     -9.536  0.3757E+02  0.2435E+03
     -9.455  0.6457E+02  0.2467E+03
     -9.375  0.4663E+02  0.2510E+03
     -9.295  0.3244E+02  0.2545E+03
     -9.214  0.2930E+02  0.2570E+03
     -9.134  0.6677E+01  0.2602E+03
     -9.054  0.1098E+02  0.2609E+03
     -8.973  0.9243E+01  0.2622E+03
     -8.893  0.7230E+01  0.2629E+03
     -8.813  0.6734E+01  0.2634E+03
     -8.733  0.3950E+01  0.2639E+03
     -8.652  0.0000E+00  0.2640E+03
     -8.572  0.0000E+00  0.2640E+03
     -8.492  0.0000E+00  0.2640E+03
     -8.411  0.0000E+00  0.2640E+03
     -8.331  0.0000E+00  0.2640E+03
     -8.251  0.0000E+00  0.2640E+03
     -8.170  0.0000E+00  0.2640E+03
     -8.090  0.0000E+00  0.2640E+03
     -8.010  0.0000E+00  0.2640E+03
     -7.930  0.0000E+00  0.2640E+03
     -7.849  0.0000E+00  0.2640E+03
     -7.769  0.0000E+00  0.2640E+03
     -7.689  0.0000E+00  0.2640E+03
     -7.608  0.0000E+00  0.2640E+03
     -7.528  0.0000E+00  0.2640E+03
     -7.448  0.0000E+00  0.2640E+03
     -7.368  0.0000E+00  0.2640E+03
     -7.287  0.0000E+00  0.2640E+03
     -7.207  0.0000E+00  0.2640E+03
     -7.127  0.0000E+00  0.2640E+03
     -7.046  0.0000E+00  0.2640E+03
     -6.966  0.0000E+00  0.2640E+03
     -6.886  0.0000E+00  0.2640E+03
     -6.805  0.0000E+00  0.2640E+03
     -6.725  0.0000E+00  0.2640E+03
     -6.645  0.0000E+00  0.2640E+03
     -6.565  0.0000E+00  0.2640E+03
     -6.484  0.0000E+00  0.2640E+03
     -6.404  0.0000E+00  0.2640E+03
     -6.324  0.0000E+00  0.2640E+03
     -6.243  0.0000E+00  0.2640E+03
     -6.163  0.1278E+01  0.2641E+03
     -6.083  0.5463E+01  0.2647E+03
     -6.002  0.1031E+02  0.2655E+03
     -5.922  0.1357E+02  0.2665E+03
     -5.842  0.1969E+02  0.2681E+03
     -5.762  0.2720E+02  0.2701E+03
     -5.681  0.3464E+02  0.2728E+03
     -5.601  0.3856E+02  0.2758E+03
     -5.521  0.4149E+02  0.2793E+03
     -5.440  0.4111E+02  0.2826E+03
     -5.360  0.3596E+02  0.2858E+03
     -5.280  0.3474E+02  0.2887E+03
     -5.199  0.3006E+02  0.2914E+03
     -5.119  0.2965E+02  0.2938E+03
     -5.039  0.2783E+02  0.2961E+03
     -4.959  0.2492E+02  0.2982E+03
     -4.878  0.2128E+02  0.3001E+03
     -4.798  0.1656E+02  0.3016E+03
     -4.718  0.1260E+02  0.3027E+03
     -4.637  0.9570E+01  0.3037E+03
     -4.557  0.8168E+01  0.3044E+03
     -4.477  0.7616E+01  0.3050E+03
     -4.396  0.6158E+01  0.3055E+03
     -4.316  0.4761E+01  0.3060E+03
     -4.236  0.4093E+01  0.3063E+03
     -4.156  0.3659E+01  0.3066E+03
     -4.075  0.3290E+01  0.3069E+03
     -3.995  0.2814E+01  0.3072E+03
     -3.915  0.2473E+01  0.3074E+03
     -3.834  0.2160E+01  0.3076E+03
     -3.754  0.1720E+01  0.3077E+03
     -3.674  0.1226E+01  0.3078E+03
     -3.594  0.8442E+00  0.3079E+03
     -3.513  0.4619E+00  0.3080E+03
     -3.433  0.1864E+00  0.3080E+03
     -3.353  0.5035E-03  0.3080E+03
     -3.272  0.0000E+00  0.3080E+03
     -3.192  0.0000E+00  0.3080E+03
     -3.112  0.0000E+00  0.3080E+03
     -3.031  0.0000E+00  0.3080E+03
     -2.951  0.0000E+00  0.3080E+03
     -2.871  0.0000E+00  0.3080E+03
     -2.791  0.0000E+00  0.3080E+03
     -2.710  0.0000E+00  0.3080E+03
     -2.630  0.3952E+00  0.3080E+03
     -2.550  0.1903E+01  0.3081E+03
     -2.469  0.3297E+01  0.3083E+03
     -2.389  0.4362E+01  0.3086E+03
     -2.309  0.4663E+01  0.3090E+03
     -2.228  0.5371E+01  0.3094E+03
     -2.148  0.6608E+01  0.3098E+03
     -2.068  0.8856E+01  0.3105E+03
     -1.988  0.1077E+02  0.3113E+03
     -1.907  0.1172E+02  0.3122E+03
     -1.827  0.1297E+02  0.3132E+03
     -1.747  0.1424E+02  0.3143E+03
     -1.666  0.1655E+02  0.3155E+03
     -1.586  0.1900E+02  0.3169E+03
     -1.506  0.1926E+02  0.3186E+03
     -1.425  0.2205E+02  0.3203E+03
     -1.345  0.2259E+02  0.3220E+03
     -1.265  0.2329E+02  0.3239E+03
     -1.185  0.2258E+02  0.3257E+03
     -1.104  0.2269E+02  0.3276E+03
     -1.024  0.2646E+02  0.3295E+03
     -0.944  0.2737E+02  0.3319E+03
     -0.863  0.2816E+02  0.3341E+03
     -0.783  0.3141E+02  0.3365E+03
     -0.703  0.3307E+02  0.3391E+03
     -0.622  0.3329E+02  0.3421E+03
     -0.542  0.3386E+02  0.3448E+03
     -0.462  0.3583E+02  0.3477E+03
     -0.382  0.3673E+02  0.3506E+03
     -0.301  0.3911E+02  0.3536E+03
     -0.221  0.3852E+02  0.3568E+03
     -0.141  0.4139E+02  0.3602E+03
     -0.060  0.4284E+02  0.3636E+03
      0.020  0.4602E+02  0.3672E+03
      0.100  0.4542E+02  0.3708E+03
      0.180  0.4523E+02  0.3747E+03
      0.261  0.4060E+02  0.3785E+03
      0.341  0.4876E+02  0.3821E+03
      0.421  0.4453E+02  0.3858E+03
      0.502  0.3642E+02  0.3894E+03
      0.582  0.3379E+02  0.3922E+03
      0.662  0.3526E+02  0.3952E+03
      0.743  0.2808E+02  0.3981E+03
      0.823  0.2370E+02  0.4008E+03
      0.903  0.2353E+02  0.4028E+03
      0.983  0.2135E+02  0.4054E+03
      1.064  0.3264E+02  0.4078E+03
      1.144  0.2608E+02  0.4100E+03
      1.224  0.2356E+02  0.4126E+03
      1.305  0.3600E+02  0.4147E+03
      1.385  0.2673E+02  0.4176E+03
      1.465  0.2609E+02  0.4200E+03
      1.546  0.2287E+02  0.4224E+03
      1.626  0.3229E+02  0.4246E+03
      1.706  0.3589E+02  0.4276E+03
      1.786  0.2655E+02  0.4303E+03
      1.867  0.1852E+02  0.4321E+03
      1.947  0.2669E+02  0.4342E+03
      2.027  0.1406E+02  0.4361E+03
      2.108  0.1116E+02  0.4375E+03
      2.188  0.8188E+01  0.4388E+03
      2.268  0.3328E+01  0.4395E+03
      2.349  0.2703E+01  0.4397E+03
      2.429  0.0000E+00  0.4400E+03
      2.509  0.0000E+00  0.4400E+03
      2.589  0.0000E+00  0.4400E+03
      2.670  0.0000E+00  0.4400E+03
      2.750  0.0000E+00  0.4400E+03
      2.830  0.0000E+00  0.4400E+03
      2.911  0.0000E+00  0.4400E+03
      2.991  0.0000E+00  0.4400E+03
      3.071  0.0000E+00  0.4400E+03
      3.152  0.0000E+00  0.4400E+03
      3.232  0.0000E+00  0.4400E+03
      3.312  0.0000E+00  0.4400E+03
      3.392  0.1632E+01  0.4402E+03
      3.473  0.1925E+01  0.4403E+03
      3.553  0.3692E+01  0.4407E+03
      3.633  0.4964E+01  0.4411E+03
      3.714  0.6902E+01  0.4418E+03
      3.794  0.8850E+01  0.4424E+03
      3.874  0.1248E+02  0.4435E+03
      3.954  0.1312E+02  0.4447E+03
      4.035  0.1615E+02  0.4459E+03
      4.115  0.1785E+02  0.4473E+03
      4.195  0.2002E+02  0.4491E+03
      4.276  0.1889E+02  0.4508E+03
      4.356  0.2103E+02  0.4525E+03
      4.436  0.2367E+02  0.4544E+03
      4.517  0.2479E+02  0.4565E+03
      4.597  0.2374E+02  0.4585E+03
      4.677  0.2546E+02  0.4606E+03
      4.757  0.2532E+02  0.4628E+03
      4.838  0.2630E+02  0.4651E+03
      4.918  0.2484E+02  0.4670E+03
      4.998  0.2559E+02  0.4694E+03
      5.079  0.2724E+02  0.4718E+03
      5.159  0.3123E+02  0.4743E+03
      5.239  0.2720E+02  0.4768E+03
      5.320  0.2705E+02  0.4791E+03
      5.400  0.2766E+02  0.4814E+03
      5.480  0.2794E+02  0.4839E+03
      5.560  0.2758E+02  0.4861E+03
      5.641  0.2688E+02  0.4884E+03
      5.721  0.2683E+02  0.4905E+03
      5.801  0.2622E+02  0.4926E+03
      5.882  0.2612E+02  0.4947E+03
      5.962  0.2599E+02  0.4967E+03
      6.042  0.2501E+02  0.4987E+03
      6.123  0.2766E+02  0.5008E+03
      6.203  0.2804E+02  0.5030E+03
      6.283  0.2846E+02  0.5054E+03
      6.363  0.2994E+02  0.5077E+03
      6.444  0.3166E+02  0.5102E+03
      6.524  0.3274E+02  0.5129E+03
      6.604  0.3102E+02  0.5154E+03
      6.685  0.2965E+02  0.5179E+03
      6.765  0.2933E+02  0.5202E+03
      6.845  0.2482E+02  0.5224E+03
      6.926  0.1906E+02  0.5242E+03
      7.006  0.1303E+02  0.5255E+03
      7.086  0.8422E+01  0.5263E+03
      7.166  0.6000E+01  0.5269E+03
      7.247  0.4417E+01  0.5273E+03
      7.327  0.3147E+01  0.5276E+03
      7.407  0.1885E+01  0.5278E+03
      7.488  0.8768E+00  0.5279E+03
      7.568  0.2635E+00  0.5280E+03
      7.648  0.6303E-01  0.5280E+03
      7.728  0.0000E+00  0.5280E+03
      7.809  0.0000E+00  0.5280E+03
      7.889  0.0000E+00  0.5280E+03
      7.969  0.0000E+00  0.5280E+03
      8.050  0.0000E+00  0.5280E+03
      8.130  0.0000E+00  0.5280E+03
      8.210  0.0000E+00  0.5280E+03
      8.291  0.0000E+00  0.5280E+03
      8.371  0.0000E+00  0.5280E+03
      8.451  0.0000E+00  0.5280E+03
      8.531  0.0000E+00  0.5280E+03
      8.612  0.0000E+00  0.5280E+03
      8.692  0.0000E+00  0.5280E+03
      8.772  0.0000E+00  0.5280E+03
      8.77236320    -15.31699021  301      2.44890793      1.00000000
    -15.317  0.0000E+00  0.0000E+00  0.0000E+00
    -15.237  0.0000E+00  0.0000E+00  0.0000E+00
    -15.156  0.0000E+00  0.0000E+00  0.0000E+00
    -15.076  0.0000E+00  0.0000E+00  0.0000E+00
    -14.996  0.0000E+00  0.0000E+00  0.0000E+00
    -14.916  0.0000E+00  0.0000E+00  0.0000E+00
    -14.835  0.0000E+00  0.0000E+00  0.0000E+00
    -14.755  0.0000E+00  0.0000E+00  0.0000E+00
    -14.675  0.0000E+00  0.0000E+00  0.0000E+00
    -14.594  0.0000E+00  0.0000E+00  0.0000E+00
    -14.514  0.0000E+00  0.0000E+00  0.0000E+00
    -14.434  0.0000E+00  0.0000E+00  0.0000E+00
    -14.353  0.0000E+00  0.0000E+00  0.0000E+00
    -14.273  0.0000E+00  0.0000E+00  0.0000E+00
    -14.193  0.1523E-02  0.4689E-03  0.6724E+01
    -14.113  0.1641E-03  0.4430E-03  0.5762E+01
    -14.032  0.3128E-03  0.1147E-02  0.2248E+03
    -13.952  0.1391E-05  0.9885E-06  0.5355E-02
    -13.872  0.1168E-09  0.5538E-10  0.7709E-07
    -13.791  0.0000E+00  0.0000E+00  0.0000E+00
    -13.711  0.0000E+00  0.0000E+00  0.0000E+00
    -13.631  0.0000E+00  0.0000E+00  0.0000E+00
    -13.550  0.0000E+00  0.0000E+00  0.0000E+00
    -13.470  0.0000E+00  0.0000E+00  0.0000E+00
    -13.390  0.0000E+00  0.0000E+00  0.0000E+00
    -13.310  0.0000E+00  0.0000E+00  0.0000E+00
    -13.229  0.0000E+00  0.0000E+00  0.0000E+00
    -13.149  0.0000E+00  0.0000E+00  0.0000E+00
    -13.069  0.0000E+00  0.0000E+00  0.0000E+00
    -12.988  0.0000E+00  0.0000E+00  0.0000E+00
    -12.908  0.0000E+00  0.0000E+00  0.0000E+00
    -12.828  0.0000E+00  0.0000E+00  0.0000E+00
    -12.747  0.0000E+00  0.0000E+00  0.0000E+00
    -12.667  0.0000E+00  0.0000E+00  0.0000E+00
    -12.587  0.0000E+00  0.0000E+00  0.0000E+00
    -12.507  0.0000E+00  0.0000E+00  0.0000E+00
    -12.426  0.0000E+00  0.0000E+00  0.0000E+00
    -12.346  0.0000E+00  0.0000E+00  0.0000E+00
    -12.266  0.0000E+00  0.0000E+00  0.0000E+00
    -12.185  0.0000E+00  0.0000E+00  0.0000E+00
    -12.105  0.0000E+00  0.0000E+00  0.0000E+00
    -12.025  0.0000E+00  0.0000E+00  0.0000E+00
    -11.944  0.0000E+00  0.0000E+00  0.0000E+00
    -11.864  0.0000E+00  0.0000E+00  0.0000E+00
    -11.784  0.0000E+00  0.0000E+00  0.0000E+00
    -11.704  0.0000E+00  0.0000E+00  0.0000E+00
    -11.623  0.0000E+00  0.0000E+00  0.0000E+00
    -11.543  0.0000E+00  0.0000E+00  0.0000E+00
    -11.463  0.0000E+00  0.0000E+00  0.0000E+00
    -11.382  0.0000E+00  0.0000E+00  0.0000E+00
    -11.302  0.0000E+00  0.0000E+00  0.0000E+00
    -11.222  0.0000E+00  0.0000E+00  0.0000E+00
    -11.142  0.0000E+00  0.0000E+00  0.0000E+00
    -11.061  0.0000E+00  0.0000E+00  0.0000E+00
    -10.981  0.9436E-02  0.8242E-04  0.1803E-04
    -10.901  0.3428E-01  0.4686E-03  0.8273E-04
    -10.820  0.2826E-01  0.1063E-02  0.2942E-03
    -10.740  0.3918E-01  0.1369E-02  0.7384E-03
    -10.660  0.5548E-01  0.2018E-02  0.1114E-02
    -10.579  0.4804E-01  0.2994E-02  0.1345E-02
    -10.499  0.7785E-01  0.6095E-02  0.3264E-02
    -10.419  0.4332E-01  0.5056E-02  0.1779E-02
    -10.339  0.8928E-01  0.7113E-02  0.5288E-02
    -10.258  0.5309E-01  0.6062E-02  0.3706E-02
    -10.178  0.4207E-01  0.7792E-02  0.3230E-02
    -10.098  0.2976E-01  0.6606E-02  0.2572E-02
    -10.017  0.7324E-01  0.1290E-01  0.1415E-01
     -9.937  0.3260E-01  0.1104E-01  0.8500E-02
     -9.857  0.9619E-01  0.1579E-01  0.3498E-01
     -9.776  0.5251E-01  0.1664E-01  0.2412E-01
     -9.696  0.1915E-01  0.1214E-01  0.1529E-01
     -9.616  0.7381E-01  0.3674E-01  0.7438E-01
     -9.536  0.2391E-01  0.2747E-01  0.3992E-01
     -9.455  0.4365E-01  0.4333E-01  0.1148E+00
     -9.375  0.2944E-01  0.2708E-01  0.1029E+00
     -9.295  0.1831E-01  0.1637E-01  0.8812E-01
     -9.214  0.8455E-02  0.2881E-02  0.2198E-01
     -9.134  0.3889E-06  0.7230E-07  0.1032E-06
     -9.054  0.4640E-06  0.1060E-06  0.1798E-06
     -8.973  0.1048E-05  0.3362E-06  0.9049E-06
     -8.893  0.7127E-06  0.2279E-06  0.6173E-06
     -8.813  0.2898E-06  0.8536E-07  0.2219E-06
     -8.733  0.4023E-07  0.7391E-08  0.1223E-07
     -8.652  0.0000E+00  0.0000E+00  0.0000E+00
     -8.572  0.0000E+00  0.0000E+00  0.0000E+00
     -8.492  0.0000E+00  0.0000E+00  0.0000E+00
     -8.411  0.0000E+00  0.0000E+00  0.0000E+00
     -8.331  0.0000E+00  0.0000E+00  0.0000E+00
     -8.251  0.0000E+00  0.0000E+00  0.0000E+00
     -8.170  0.0000E+00  0.0000E+00  0.0000E+00
     -8.090  0.0000E+00  0.0000E+00  0.0000E+00
     -8.010  0.0000E+00  0.0000E+00  0.0000E+00
     -7.930  0.0000E+00  0.0000E+00  0.0000E+00
     -7.849  0.0000E+00  0.0000E+00  0.0000E+00
     -7.769  0.0000E+00  0.0000E+00  0.0000E+00
     -7.689  0.0000E+00  0.0000E+00  0.0000E+00
     -7.608  0.0000E+00  0.0000E+00  0.0000E+00
     -7.528  0.0000E+00  0.0000E+00  0.0000E+00
     -7.448  0.0000E+00  0.0000E+00  0.0000E+00
     -7.368  0.0000E+00  0.0000E+00  0.0000E+00
     -7.287  0.0000E+00  0.0000E+00  0.0000E+00
     -7.207  0.0000E+00  0.0000E+00  0.0000E+00
     -7.127  0.0000E+00  0.0000E+00  0.0000E+00
     -7.046  0.0000E+00  0.0000E+00  0.0000E+00
     -6.966  0.0000E+00  0.0000E+00  0.0000E+00
     -6.886  0.0000E+00  0.0000E+00  0.0000E+00
     -6.805  0.0000E+00  0.0000E+00  0.0000E+00
     -6.725  0.0000E+00  0.0000E+00  0.0000E+00
     -6.645  0.0000E+00  0.0000E+00  0.0000E+00
     -6.565  0.0000E+00  0.0000E+00  0.0000E+00
     -6.484  0.0000E+00  0.0000E+00  0.0000E+00
     -6.404  0.0000E+00  0.0000E+00  0.0000E+00
     -6.324  0.0000E+00  0.0000E+00  0.0000E+00
     -6.243  0.0000E+00  0.0000E+00  0.0000E+00
     -6.163  0.3711E-01  0.1157E-03  0.4799E-03
     -6.083  0.2774E+00  0.7315E-03  0.1657E-02
     -6.002  0.3363E+00  0.1481E-02  0.2071E-02
     -5.922  0.4016E+00  0.1926E-02  0.2492E-02
     -5.842  0.6615E+00  0.2812E-02  0.3750E-02
     -5.762  0.9532E+00  0.4015E-02  0.4966E-02
     -5.681  0.9748E+00  0.4825E-02  0.5222E-02
     -5.601  0.1087E+01  0.5585E-02  0.4955E-02
     -5.521  0.1056E+01  0.5510E-02  0.5067E-02
     -5.440  0.1022E+01  0.5434E-02  0.4490E-02
     -5.360  0.8543E+00  0.5125E-02  0.3862E-02
     -5.280  0.7374E+00  0.4862E-02  0.3617E-02
     -5.199  0.7235E+00  0.4484E-02  0.3350E-02
     -5.119  0.6861E+00  0.4257E-02  0.3277E-02
     -5.039  0.6196E+00  0.3989E-02  0.3246E-02
     -4.959  0.5028E+00  0.3563E-02  0.2691E-02
     -4.878  0.4121E+00  0.2765E-02  0.2238E-02
     -4.798  0.3594E+00  0.2030E-02  0.1844E-02
     -4.718  0.2786E+00  0.1580E-02  0.1278E-02
     -4.637  0.1975E+00  0.1240E-02  0.9586E-03
     -4.557  0.1557E+00  0.1091E-02  0.7801E-03
     -4.477  0.1369E+00  0.1004E-02  0.6742E-03
     -4.396  0.1271E+00  0.8695E-03  0.5766E-03
     -4.316  0.8820E-01  0.7369E-03  0.3212E-03
     -4.236  0.7666E-01  0.6421E-03  0.2274E-03
     -4.156  0.7213E-01  0.5636E-03  0.1791E-03
     -4.075  0.6878E-01  0.4873E-03  0.1397E-03
     -3.995  0.6077E-01  0.3583E-03  0.1095E-03
     -3.915  0.5130E-01  0.3004E-03  0.8431E-04
     -3.834  0.4180E-01  0.2553E-03  0.5908E-04
     -3.754  0.3226E-01  0.2011E-03  0.3688E-04
     -3.674  0.2225E-01  0.1188E-03  0.1821E-04
     -3.594  0.1675E-01  0.7880E-04  0.1222E-04
     -3.513  0.1121E-01  0.4128E-04  0.6935E-05
     -3.433  0.5628E-02  0.1552E-04  0.2950E-05
     -3.353  0.1525E-04  0.3858E-07  0.7321E-08
     -3.272  0.0000E+00  0.0000E+00  0.0000E+00
     -3.192  0.0000E+00  0.0000E+00  0.0000E+00
     -3.112  0.0000E+00  0.0000E+00  0.0000E+00
     -3.031  0.0000E+00  0.0000E+00  0.0000E+00
     -2.951  0.0000E+00  0.0000E+00  0.0000E+00
     -2.871  0.0000E+00  0.0000E+00  0.0000E+00
     -2.791  0.0000E+00  0.0000E+00  0.0000E+00
     -2.710  0.0000E+00  0.0000E+00  0.0000E+00
     -2.630  0.2021E-04  0.4724E-02  0.2623E-04
     -2.550  0.1097E-03  0.2203E-01  0.1522E-03
     -2.469  0.4578E-03  0.3021E-01  0.3964E-03
     -2.389  0.1037E-02  0.3836E-01  0.6534E-03
     -2.309  0.1736E-02  0.4085E-01  0.9069E-03
     -2.228  0.3185E-02  0.4657E-01  0.1192E-02
     -2.148  0.4497E-02  0.5492E-01  0.1593E-02
     -2.068  0.6017E-02  0.7451E-01  0.2340E-02
     -1.988  0.8590E-02  0.8139E-01  0.2996E-02
     -1.907  0.1143E-01  0.8159E-01  0.3442E-02
     -1.827  0.1370E-01  0.8690E-01  0.4113E-02
     -1.747  0.1719E-01  0.9388E-01  0.4743E-02
     -1.666  0.1848E-01  0.1005E+00  0.5489E-02
     -1.586  0.1930E-01  0.1127E+00  0.6639E-02
     -1.506  0.1734E-01  0.1075E+00  0.6667E-02
     -1.425  0.1722E-01  0.1303E+00  0.7818E-02
     -1.345  0.1637E-01  0.1424E+00  0.8214E-02
     -1.265  0.1480E-01  0.1448E+00  0.8596E-02
     -1.185  0.1349E-01  0.1351E+00  0.8018E-02
     -1.104  0.1254E-01  0.1350E+00  0.8191E-02
     -1.024  0.1306E-01  0.1561E+00  0.9513E-02
     -0.944  0.1270E-01  0.1652E+00  0.9892E-02
     -0.863  0.1190E-01  0.1570E+00  0.1057E-01
     -0.783  0.1502E-01  0.1685E+00  0.1244E-01
     -0.703  0.1591E-01  0.1646E+00  0.1358E-01
     -0.622  0.1810E-01  0.1664E+00  0.1365E-01
     -0.542  0.2170E-01  0.1732E+00  0.1524E-01
     -0.462  0.2633E-01  0.1746E+00  0.1819E-01
     -0.382  0.2963E-01  0.1593E+00  0.1864E-01
     -0.301  0.3037E-01  0.1617E+00  0.1914E-01
     -0.221  0.3413E-01  0.1546E+00  0.1826E-01
     -0.141  0.3895E-01  0.1691E+00  0.2015E-01
     -0.060  0.4858E-01  0.1646E+00  0.2242E-01
      0.020  0.4676E-01  0.1584E+00  0.2605E-01
      0.100  0.4914E-01  0.1580E+00  0.2733E-01
      0.180  0.5025E-01  0.1751E+00  0.2613E-01
      0.261  0.4599E-01  0.1526E+00  0.2712E-01
      0.341  0.4253E-01  0.1556E+00  0.2733E-01
      0.421  0.4731E-01  0.1451E+00  0.2555E-01
      0.502  0.4734E-01  0.1116E+00  0.1951E-01
      0.582  0.3803E-01  0.8787E-01  0.2150E-01
      0.662  0.4113E-01  0.8074E-01  0.1976E-01
      0.743  0.4401E-01  0.5970E-01  0.1699E-01
      0.823  0.5413E-01  0.5103E-01  0.1651E-01
      0.903  0.7573E-01  0.4869E-01  0.1535E-01
      0.983  0.8044E-01  0.4205E-01  0.1328E-01
      1.064  0.1661E+00  0.7279E-01  0.1635E-01
      1.144  0.1067E+00  0.5168E-01  0.1358E-01
      1.224  0.1154E+00  0.5536E-01  0.1499E-01
      1.305  0.1134E+00  0.8174E-01  0.1491E-01
      1.385  0.1274E+00  0.5410E-01  0.1427E-01
      1.465  0.1311E+00  0.6405E-01  0.1361E-01
      1.546  0.1264E+00  0.5245E-01  0.1273E-01
      1.626  0.1790E+00  0.5790E-01  0.2144E-01
      1.706  0.2055E+00  0.5005E-01  0.2604E-01
      1.786  0.1108E+00  0.3655E-01  0.1278E-01
      1.867  0.9819E-01  0.2101E-01  0.9910E-02
      1.947  0.2112E+00  0.2223E-01  0.1523E-01
      2.027  0.1042E+00  0.1838E-01  0.7154E-02
      2.108  0.9044E-01  0.1799E-01  0.5749E-02
      2.188  0.6274E-01  0.1589E-01  0.3620E-02
      2.268  0.1371E-01  0.2971E-02  0.1310E-02
      2.349  0.1002E-01  0.2828E-02  0.8452E-03
      2.429  0.0000E+00  0.0000E+00  0.0000E+00
      2.509  0.0000E+00  0.0000E+00  0.0000E+00
      2.589  0.0000E+00  0.0000E+00  0.0000E+00
      2.670  0.0000E+00  0.0000E+00  0.0000E+00
      2.750  0.0000E+00  0.0000E+00  0.0000E+00
      2.830  0.0000E+00  0.0000E+00  0.0000E+00
      2.911  0.0000E+00  0.0000E+00  0.0000E+00
      2.991  0.0000E+00  0.0000E+00  0.0000E+00
      3.071  0.0000E+00  0.0000E+00  0.0000E+00
      3.152  0.0000E+00  0.0000E+00  0.0000E+00
      3.232  0.0000E+00  0.0000E+00  0.0000E+00
      3.312  0.0000E+00  0.0000E+00  0.0000E+00
      3.392  0.2327E-02  0.2336E-01  0.3698E-03
      3.473  0.2328E-02  0.2903E-01  0.3918E-03
      3.553  0.2448E-02  0.5379E-01  0.4904E-03
      3.633  0.3004E-02  0.6513E-01  0.5627E-03
      3.714  0.5352E-02  0.8396E-01  0.6273E-03
      3.794  0.4553E-02  0.1177E+00  0.6474E-03
      3.874  0.6677E-02  0.1888E+00  0.1124E-02
      3.954  0.7227E-02  0.2012E+00  0.1697E-02
      4.035  0.8918E-02  0.2397E+00  0.2132E-02
      4.115  0.1198E-01  0.2280E+00  0.2391E-02
      4.195  0.1123E-01  0.2442E+00  0.2388E-02
      4.276  0.8968E-02  0.2369E+00  0.2588E-02
      4.356  0.9248E-02  0.2887E+00  0.2957E-02
      4.436  0.9635E-02  0.3408E+00  0.3520E-02
      4.517  0.1003E-01  0.3573E+00  0.4388E-02
      4.597  0.9459E-02  0.2957E+00  0.4433E-02
      4.677  0.9759E-02  0.3126E+00  0.4395E-02
      4.757  0.1027E-01  0.3291E+00  0.4405E-02
      4.838  0.1094E-01  0.3997E+00  0.5001E-02
      4.918  0.9769E-02  0.4071E+00  0.5324E-02
      4.998  0.7927E-02  0.4127E+00  0.5456E-02
      5.079  0.8255E-02  0.4246E+00  0.6055E-02
      5.159  0.1026E-01  0.5335E+00  0.7650E-02
      5.239  0.1027E-01  0.4405E+00  0.7913E-02
      5.320  0.9606E-02  0.4687E+00  0.8662E-02
      5.400  0.9629E-02  0.4285E+00  0.9503E-02
      5.480  0.1001E-01  0.4409E+00  0.1026E-01
      5.560  0.1082E-01  0.4341E+00  0.1154E-01
      5.641  0.1143E-01  0.3913E+00  0.1235E-01
      5.721  0.1115E-01  0.3922E+00  0.1294E-01
      5.801  0.1296E-01  0.3314E+00  0.1398E-01
      5.882  0.1512E-01  0.3305E+00  0.1591E-01
      5.962  0.1726E-01  0.3280E+00  0.1830E-01
      6.042  0.1468E-01  0.3298E+00  0.1914E-01
      6.123  0.1461E-01  0.3650E+00  0.2246E-01
      6.203  0.1160E-01  0.3835E+00  0.2361E-01
      6.283  0.1108E-01  0.3914E+00  0.2646E-01
      6.363  0.1155E-01  0.4527E+00  0.2704E-01
      6.444  0.1088E-01  0.4423E+00  0.3065E-01
      6.524  0.9581E-02  0.4261E+00  0.3750E-01
      6.604  0.8046E-02  0.3586E+00  0.3620E-01
      6.685  0.6933E-02  0.3465E+00  0.3014E-01
      6.765  0.6340E-02  0.3591E+00  0.2784E-01
      6.845  0.5866E-02  0.3051E+00  0.2191E-01
      6.926  0.3742E-02  0.2317E+00  0.1483E-01
      7.006  0.2761E-02  0.1641E+00  0.9027E-02
      7.086  0.1494E-02  0.1088E+00  0.5143E-02
      7.166  0.1140E-02  0.8172E-01  0.3259E-02
      7.247  0.8533E-03  0.6189E-01  0.2258E-02
      7.327  0.5969E-03  0.4419E-01  0.1556E-02
      7.407  0.3547E-03  0.2624E-01  0.8872E-03
      7.488  0.1317E-03  0.1018E-01  0.3980E-03
      7.568  0.2525E-06  0.6587E-03  0.9644E-04
      7.648  0.5597E-07  0.1587E-03  0.2447E-04
      7.728  0.0000E+00  0.0000E+00  0.0000E+00
      7.809  0.0000E+00  0.0000E+00  0.0000E+00
      7.889  0.0000E+00  0.0000E+00  0.0000E+00
      7.969  0.0000E+00  0.0000E+00  0.0000E+00
      8.050  0.0000E+00  0.0000E+00  0.0000E+00
      8.130  0.0000E+00  0.0000E+00  0.0000E+00
      8.210  0.0000E+00  0.0000E+00  0.0000E+00
      8.291  0.0000E+00  0.0000E+00  0.0000E+00
      8.371  0.0000E+00  0.0000E+00  0.0000E+00
      8.451  0.0000E+00  0.0000E+00  0.0000E+00
      8.531  0.0000E+00  0.0000E+00  0.0000E+00
      8.612  0.0000E+00  0.0000E+00  0.0000E+00
      8.692  0.0000E+00  0.0000E+00  0.0000E+00
      8.772  0.0000E+00  0.0000E+00  0.0000E+00
      8.77236320    -15.31699021  301      2.44890793      1.00000000
    -15.317  0.0000E+00  0.0000E+00  0.0000E+00
    -15.237  0.0000E+00  0.0000E+00  0.0000E+00
    -15.156  0.0000E+00  0.0000E+00  0.0000E+00
    -15.076  0.0000E+00  0.0000E+00  0.0000E+00
    -14.996  0.0000E+00  0.0000E+00  0.0000E+00
    -14.916  0.0000E+00  0.0000E+00  0.0000E+00
    -14.835  0.0000E+00  0.0000E+00  0.0000E+00
    -14.755  0.0000E+00  0.0000E+00  0.0000E+00
    -14.675  0.0000E+00  0.0000E+00  0.0000E+00
    -14.594  0.0000E+00  0.0000E+00  0.0000E+00
    -14.514  0.0000E+00  0.0000E+00  0.0000E+00
    -14.434  0.0000E+00  0.0000E+00  0.0000E+00
    -14.353  0.0000E+00  0.0000E+00  0.0000E+00
    -14.273  0.0000E+00  0.0000E+00  0.0000E+00
    -14.193  0.1523E-02  0.4689E-03  0.6724E+01
    -14.113  0.1641E-03  0.4430E-03  0.5762E+01
    -14.032  0.3128E-03  0.1147E-02  0.2248E+03
    -13.952  0.1391E-05  0.9885E-06  0.5355E-02
    -13.872  0.1169E-09  0.5538E-10  0.7709E-07
    -13.791  0.0000E+00  0.0000E+00  0.0000E+00
    -13.711  0.0000E+00  0.0000E+00  0.0000E+00
    -13.631  0.0000E+00  0.0000E+00  0.0000E+00
    -13.550  0.0000E+00  0.0000E+00  0.0000E+00
    -13.470  0.0000E+00  0.0000E+00  0.0000E+00
    -13.390  0.0000E+00  0.0000E+00  0.0000E+00
    -13.310  0.0000E+00  0.0000E+00  0.0000E+00
    -13.229  0.0000E+00  0.0000E+00  0.0000E+00
    -13.149  0.0000E+00  0.0000E+00  0.0000E+00
    -13.069  0.0000E+00  0.0000E+00  0.0000E+00
    -12.988  0.0000E+00  0.0000E+00  0.0000E+00
    -12.908  0.0000E+00  0.0000E+00  0.0000E+00
    -12.828  0.0000E+00  0.0000E+00  0.0000E+00
    -12.747  0.0000E+00  0.0000E+00  0.0000E+00
    -12.667  0.0000E+00  0.0000E+00  0.0000E+00
    -12.587  0.0000E+00  0.0000E+00  0.0000E+00
    -12.507  0.0000E+00  0.0000E+00  0.0000E+00
    -12.426  0.0000E+00  0.0000E+00  0.0000E+00
    -12.346  0.0000E+00  0.0000E+00  0.0000E+00
    -12.266  0.0000E+00  0.0000E+00  0.0000E+00
    -12.185  0.0000E+00  0.0000E+00  0.0000E+00
    -12.105  0.0000E+00  0.0000E+00  0.0000E+00
    -12.025  0.0000E+00  0.0000E+00  0.0000E+00
    -11.944  0.0000E+00  0.0000E+00  0.0000E+00
    -11.864  0.0000E+00  0.0000E+00  0.0000E+00
    -11.784  0.0000E+00  0.0000E+00  0.0000E+00
    -11.704  0.0000E+00  0.0000E+00  0.0000E+00
    -11.623  0.0000E+00  0.0000E+00  0.0000E+00
    -11.543  0.0000E+00  0.0000E+00  0.0000E+00
    -11.463  0.0000E+00  0.0000E+00  0.0000E+00
    -11.382  0.0000E+00  0.0000E+00  0.0000E+00
    -11.302  0.0000E+00  0.0000E+00  0.0000E+00
    -11.222  0.0000E+00  0.0000E+00  0.0000E+00
    -11.142  0.0000E+00  0.0000E+00  0.0000E+00
    -11.061  0.0000E+00  0.0000E+00  0.0000E+00
    -10.981  0.9436E-02  0.8242E-04  0.1803E-04
    -10.901  0.3428E-01  0.4686E-03  0.8273E-04
    -10.820  0.2826E-01  0.1063E-02  0.2942E-03
    -10.740  0.3918E-01  0.1369E-02  0.7384E-03
    -10.660  0.5548E-01  0.2018E-02  0.1114E-02
    -10.579  0.4804E-01  0.2994E-02  0.1345E-02
    -10.499  0.7785E-01  0.6095E-02  0.3264E-02
    -10.419  0.4332E-01  0.5056E-02  0.1779E-02
    -10.339  0.8928E-01  0.7113E-02  0.5288E-02
    -10.258  0.5309E-01  0.6062E-02  0.3706E-02
    -10.178  0.4207E-01  0.7792E-02  0.3230E-02
    -10.098  0.2976E-01  0.6606E-02  0.2572E-02
    -10.017  0.7324E-01  0.1290E-01  0.1415E-01
     -9.937  0.3260E-01  0.1104E-01  0.8500E-02
     -9.857  0.9619E-01  0.1579E-01  0.3498E-01
     -9.776  0.5251E-01  0.1664E-01  0.2412E-01
     -9.696  0.1915E-01  0.1214E-01  0.1529E-01
     -9.616  0.7381E-01  0.3674E-01  0.7438E-01
     -9.536  0.2391E-01  0.2747E-01  0.3992E-01
     -9.455  0.4365E-01  0.4333E-01  0.1148E+00
     -9.375  0.2944E-01  0.2708E-01  0.1029E+00
     -9.295  0.1831E-01  0.1637E-01  0.8812E-01
     -9.214  0.8455E-02  0.2881E-02  0.2198E-01
     -9.134  0.3889E-06  0.7230E-07  0.1032E-06
     -9.054  0.4640E-06  0.1060E-06  0.1798E-06
     -8.973  0.1048E-05  0.3362E-06  0.9049E-06
     -8.893  0.7127E-06  0.2279E-06  0.6172E-06
     -8.813  0.2898E-06  0.8536E-07  0.2219E-06
     -8.733  0.4023E-07  0.7391E-08  0.1223E-07
     -8.652  0.0000E+00  0.0000E+00  0.0000E+00
     -8.572  0.0000E+00  0.0000E+00  0.0000E+00
     -8.492  0.0000E+00  0.0000E+00  0.0000E+00
     -8.411  0.0000E+00  0.0000E+00  0.0000E+00
     -8.331  0.0000E+00  0.0000E+00  0.0000E+00
     -8.251  0.0000E+00  0.0000E+00  0.0000E+00
     -8.170  0.0000E+00  0.0000E+00  0.0000E+00