 vasp.5.4.1 05Feb16 (build Mar 25 2016 06:51:17) complex                        
  
 executed on           IFC91_ompi date 2016.12.11  10:57:46
 running on    8 total cores
 distrk:  each k-point on    8 cores,    1 groups
 distr:  one band on NCORES_PER_BAND=   8 cores,    1 groups


--------------------------------------------------------------------------------------------------------


 INCAR:
 POTCAR:    PAW_PBE Pb_d 06Sep2000                
 POTCAR:    PAW_PBE S 06Sep2000                   

 ----------------------------------------------------------------------------- 
|                                                                             |
|           W    W    AA    RRRRR   N    N  II  N    N   GGGG   !!!           |
|           W    W   A  A   R    R  NN   N  II  NN   N  G    G  !!!           |
|           W    W  A    A  R    R  N N  N  II  N N  N  G       !!!           |
|           W WW W  AAAAAA  RRRRR   N  N N  II  N  N N  G  GGG   !            |
|           WW  WW  A    A  R   R   N   NN  II  N   NN  G    G                |
|           W    W  A    A  R    R  N    N  II  N    N   GGGG   !!!           |
|                                                                             |
|      For optimal performance we recommend to set                            |
|        NCORE= 4 - approx SQRT( number of cores)                             |
|      NCORE specifies how many cores store one orbital (NPAR=cpu/NCORE).     |
|      This setting can  greatly improve the performance of VASP for DFT.     |
|      The default, NPAR=number of cores might be grossly inefficient         |
|      on modern multi-core architectures or massively parallel machines.     |
|      Do your own testing !!!!                                               |
|      Unfortunately you need to use the default for GW and RPA calculations. |
|      (for HF NCORE is supported but not extensively tested yet)             |
|                                                                             |
 ----------------------------------------------------------------------------- 

 POTCAR:    PAW_PBE Pb_d 06Sep2000                
   VRHFIN =Pb:                                                                  
   LEXCH  = PE                                                                  
   EATOM  =  1661.6185 eV,  122.1255 Ry                                         
                                                                                
   TITEL  = PAW_PBE Pb_d 06Sep2000                                              
   LULTRA =        F    use ultrasoft PP ?                                      
   IUNSCR =        1    unscreen: 0-lin 1-nonlin 2-no                           
   RPACOR =    2.200    partial core radius                                     
   POMASS =  207.200; ZVAL   =   14.000    mass and valenz                      
   RCORE  =    2.500    outmost cutoff radius                                   
   RWIGS  =    3.260; RWIGS  =    1.725    wigner-seitz radius (au A)           
   ENMAX  =  237.835; ENMIN  =  178.376 eV                                      
   ICORE  =        3    local potential                                         
   LCOR   =        T    correct aug charges                                     
   LPAW   =        T    paw PP                                                  
   EAUG   =  391.914                                                            
   DEXC   =    0.000                                                            
   RMAX   =    2.565    core radius for proj-oper                               
   RAUG   =    1.300    factor for augmentation sphere                          
   RDEP   =    2.643    radius for radial grids                                 
   RDEPT  =    2.092    core radius for aug-charge                              
                                                                                
   Atomic configuration                                                         
   16 entries                                                                   
     n  l   j            E        occ.                                          
     1  0  0.50    -88091.8466   2.0000                                         
     2  0  0.50    -15753.4197   2.0000                                         
     2  1  1.50    -13508.1797   6.0000                                         
     3  0  0.50     -3781.7194   2.0000                                         
     3  1  1.50     -3138.2529   6.0000                                         
     3  2  2.50     -2483.2977  10.0000                                         
     4  0  0.50      -856.2895   2.0000                                         
     4  1  1.50      -645.4942   6.0000                                         
     4  2  2.50      -401.8768  10.0000                                         
     4  3  3.50      -132.9059  14.0000                                         
     5  0  0.50      -144.0950   2.0000                                         
     5  1  1.50       -85.7879   6.0000                                         
     5  2  2.50       -21.1769  10.0000                                         
     6  0  0.50       -12.0372   2.0000                                         
     6  1  1.50        -3.4971   2.0000                                         
     5  3  2.50        -2.7212   0.0000                                         
   Description                                                                  
     l       E           TYP  RCUT    TYP  RCUT                                 
     2    -21.1768523     23  2.500                                             
     2      1.3605826     23  2.500                                             
     0    -12.0371562     23  2.500                                             
     0     13.6058260     23  2.500                                             
     1     -3.4971339     23  2.500                                             
     1     13.6058260     23  2.500                                             
     3     -1.3605826      7  2.500                                             
  local pseudopotential read in
  partial core-charges read in
  partial kinetic energy density read in
  atomic valenz-charges read in
  non local Contribution for L=           2  read in
    real space projection operators read in
  non local Contribution for L=           2  read in
    real space projection operators read in
  non local Contribution for L=           0  read in
    real space projection operators read in
  non local Contribution for L=           0  read in
    real space projection operators read in
  non local Contribution for L=           1  read in
    real space projection operators read in
  non local Contribution for L=           1  read in
    real space projection operators read in
    PAW grid and wavefunctions read in
 
   number of l-projection  operators is LMAX  =           6
   number of lm-projection operators is LMMAX =          18
 
 POTCAR:    PAW_PBE S 06Sep2000                   
   VRHFIN =S : s2p4                                                             
   LEXCH  = PE                                                                  
   EATOM  =   276.8230 eV,   20.3459 Ry                                         
                                                                                
   TITEL  = PAW_PBE S 06Sep2000                                                 
   LULTRA =        F    use ultrasoft PP ?                                      
   IUNSCR =        1    unscreen: 0-lin 1-nonlin 2-no                           
   RPACOR =    1.500    partial core radius                                     
   POMASS =   32.066; ZVAL   =    6.000    mass and valenz                      
   RCORE  =    1.900    outmost cutoff radius                                   
   RWIGS  =    2.200; RWIGS  =    1.164    wigner-seitz radius (au A)           
   ENMAX  =  258.689; ENMIN  =  194.016 eV                                      
   ICORE  =        2    local potential                                         
   LCOR   =        T    correct aug charges                                     
   LPAW   =        T    paw PP                                                  
   EAUG   =  335.092                                                            
   DEXC   =    0.000                                                            
   RMAX   =    1.942    core radius for proj-oper                               
   RAUG   =    1.300    factor for augmentation sphere                          
   RDEP   =    1.954    radius for radial grids                                 
   RDEPT  =    1.744    core radius for aug-charge                              
                                                                                
   Atomic configuration                                                         
    6 entries                                                                   
     n  l   j            E        occ.                                          
     1  0  0.50     -2405.8406   2.0000                                         
     2  0  0.50      -211.7007   2.0000                                         
     2  1  1.50      -156.4958   6.0000                                         
     3  0  0.50       -17.2562   2.0000                                         
     3  1  0.50        -7.0085   4.0000                                         
     3  2  1.50        -6.8029   0.0000                                         
   Description                                                                  
     l       E           TYP  RCUT    TYP  RCUT                                 
     0    -17.2561641     23  1.900                                             
     0    -15.8743224     23  1.900                                             
     1     -7.0085400     23  1.900                                             
     1     -2.7779785     23  1.900                                             
     2     -6.8029130     23  1.900                                             
  local pseudopotential read in
  partial core-charges read in
  partial kinetic energy density read in
  atomic valenz-charges read in
  non local Contribution for L=           0  read in
    real space projection operators read in
  non local Contribution for L=           0  read in
    real space projection operators read in
  non local Contribution for L=           1  read in
    real space projection operators read in
  non local Contribution for L=           1  read in
    real space projection operators read in
    PAW grid and wavefunctions read in
 
   number of l-projection  operators is LMAX  =           4
   number of lm-projection operators is LMMAX =           8
 

 ----------------------------------------------------------------------------- 
|                                                                             |
|  ADVICE TO THIS USER RUNNING 'VASP/VAMP'   (HEAR YOUR MASTER'S VOICE ...):  |
|                                                                             |
|      You have a (more or less) 'large supercell' and for larger cells       |
|      it might be more efficient to use real space projection opertators     |
|      So try LREAL= Auto  in the INCAR   file.                               |
|      Mind: At the moment your POTCAR file does not contain real space       |
|       projectors, and has to be modified,  BUT if you                       |
|      want to do an extremely  accurate calculation you might also keep the  |
|      reciprocal projection scheme          (i.e. LREAL=.FALSE.)             |
|                                                                             |
 ----------------------------------------------------------------------------- 


 ----------------------------------------------------------------------------- 
|                                                                             |
|  ADVICE TO THIS USER RUNNING 'VASP/VAMP'   (HEAR YOUR MASTER'S VOICE ...):  |
|                                                                             |
|      You enforced a specific xc-type in the INCAR file,                     |
|      a different type was found on the POTCAR file                          |
|          I HOPE YOU KNOW, WHAT YOU ARE  DOING                               |
|                                                                             |
 ----------------------------------------------------------------------------- 

  PAW_PBE Pb_d 06Sep2000                :
 energy of atom  1       EATOM=-1661.6185
 kinetic energy error for atom=    0.0047 (will be added to EATOM!!)
  PAW_PBE S 06Sep2000                   :
 energy of atom  2       EATOM= -276.8230
 kinetic energy error for atom=    0.0020 (will be added to EATOM!!)
 
 
 POSCAR: PbS_rc_conven                           
  positions in direct lattice
  No initial velocities read in
 exchange correlation table for  LEXCH =       14
   RHO(1)=    0.500       N(1)  =     2000
   RHO(2)=  100.500       N(2)  =     4000
 


--------------------------------------------------------------------------------------------------------


 ion  position               nearest neighbor table
   1  0.000  0.000  0.000-  23 2.95  24 2.95  23 2.95  24 2.95  25 2.95  43 2.95
   2  0.500  0.500  0.000-  23 2.95  24 2.95  24 2.95  23 2.95  26 2.95  44 2.95
   3  0.000  0.500  0.062-  25 2.95  26 2.95  25 2.95  26 2.95  23 2.95  27 2.95
   4  0.500  0.000  0.062-  25 2.95  26 2.95  26 2.95  25 2.95  24 2.95  28 2.95
   5  0.000  0.000  0.125-  27 2.95  28 2.95  27 2.95  28 2.95  25 2.95  29 2.95
   6  0.500  0.500  0.125-  27 2.95  28 2.95  28 2.95  27 2.95  26 2.95  30 2.95
   7  0.000  0.500  0.188-  29 2.95  30 2.95  29 2.95  30 2.95  27 2.95  31 2.95
   8  0.500  0.000  0.188-  29 2.95  30 2.95  30 2.95  29 2.95  28 2.95  32 2.95
   9  0.000  0.000  0.250-  31 2.95  32 2.95  31 2.95  32 2.95  29 2.95  33 2.95
  10  0.500  0.500  0.250-  31 2.95  32 2.95  32 2.95  31 2.95  30 2.95  34 2.95
  11  0.000  0.500  0.312-  33 2.95  34 2.95  33 2.95  34 2.95  31 2.95
  12  0.500  0.000  0.312-  33 2.95  34 2.95  34 2.95  33 2.95  32 2.95
  13  0.000  0.500  0.688-  35 2.95  36 2.95  35 2.95  36 2.95  37 2.95
  14  0.500  0.000  0.688-  35 2.95  36 2.95  36 2.95  35 2.95  38 2.95
  15  0.000  0.000  0.750-  37 2.95  38 2.95  37 2.95  38 2.95  35 2.95  39 2.95
  16  0.500  0.500  0.750-  37 2.95  38 2.95  38 2.95  37 2.95  36 2.95  40 2.95
  17  0.000  0.500  0.812-  39 2.95  40 2.95  39 2.95  40 2.95  37 2.95  41 2.95
  18  0.500  0.000  0.812-  39 2.95  40 2.95  40 2.95  39 2.95  38 2.95  42 2.95
  19  0.000  0.000  0.875-  41 2.95  42 2.95  41 2.95  42 2.95  39 2.95  43 2.95
  20  0.500  0.500  0.875-  41 2.95  42 2.95  42 2.95  41 2.95  40 2.95  44 2.95
  21  0.000  0.500  0.938-  43 2.95  44 2.95  43 2.95  44 2.95  23 2.95  41 2.95
  22  0.500  0.000  0.938-  43 2.95  44 2.95  44 2.95  43 2.95  24 2.95  42 2.95
  23  0.000  0.500  0.000-   1 2.95   2 2.95   1 2.95   2 2.95   3 2.95  21 2.95
  24  0.500  0.000  0.000-   1 2.95   2 2.95   2 2.95   1 2.95   4 2.95  22 2.95
  25  0.000  0.000  0.062-   3 2.95   4 2.95   3 2.95   4 2.95   1 2.95   5 2.95
  26  0.500  0.500  0.062-   3 2.95   4 2.95   4 2.95   3 2.95   2 2.95   6 2.95
  27  0.000  0.500  0.125-   5 2.95   6 2.95   5 2.95   6 2.95   3 2.95   7 2.95
  28  0.500  0.000  0.125-   5 2.95   6 2.95   6 2.95   5 2.95   4 2.95   8 2.95
  29  0.000  0.000  0.188-   7 2.95   8 2.95   7 2.95   8 2.95   5 2.95   9 2.95
  30  0.500  0.500  0.188-   7 2.95   8 2.95   8 2.95   7 2.95   6 2.95  10 2.95
  31  0.000  0.500  0.250-   9 2.95  10 2.95   9 2.95  10 2.95   7 2.95  11 2.95
  32  0.500  0.000  0.250-   9 2.95  10 2.95  10 2.95   9 2.95   8 2.95  12 2.95
  33  0.000  0.000  0.312-  11 2.95  12 2.95  11 2.95  12 2.95   9 2.95
  34  0.500  0.500  0.312-  11 2.95  12 2.95  12 2.95  11 2.95  10 2.95
  35  0.000  0.000  0.688-  13 2.95  14 2.95  13 2.95  14 2.95  15 2.95
  36  0.500  0.500  0.688-  13 2.95  14 2.95  14 2.95  13 2.95  16 2.95
  37  0.000  0.500  0.750-  15 2.95  16 2.95  15 2.95  16 2.95  13 2.95  17 2.95
  38  0.500  0.000  0.750-  15 2.95  16 2.95  16 2.95  15 2.95  14 2.95  18 2.95
  39  0.000  0.000  0.812-  17 2.95  18 2.95  17 2.95  18 2.95  15 2.95  19 2.95
  40  0.500  0.500  0.812-  17 2.95  18 2.95  18 2.95  17 2.95  16 2.95  20 2.95
  41  0.000  0.500  0.875-  19 2.95  20 2.95  19 2.95  20 2.95  17 2.95  21 2.95
  42  0.500  0.000  0.875-  19 2.95  20 2.95  20 2.95  19 2.95  18 2.95  22 2.95
  43  0.000  0.000  0.938-  21 2.95  22 2.95  21 2.95  22 2.95   1 2.95  19 2.95
  44  0.500  0.500  0.938-  21 2.95  22 2.95  22 2.95  21 2.95   2 2.95  20 2.95
 

IMPORTANT INFORMATION: All symmetrisations will be switched off!
NOSYMM: (Re-)initialisation of all symmetry stuff for point group C_1.

 
 

Automatic generation of k-mesh.
 generate k-points for:    5    5    1
Space group operators:
 irot       det(A)        alpha          n_x          n_y          n_z        tau_x        tau_y        tau_z
    1     1.000000     0.000000     1.000000     0.000000     0.000000     0.000000     0.000000     0.000000
 
 Subroutine IBZKPT returns following result:
 ===========================================
 
 Found     13 irreducible k-points:
 
 Following reciprocal coordinates:
            Coordinates               Weight
  0.000000  0.000000  0.000000      1.000000
  0.200000  0.000000  0.000000      2.000000
  0.400000  0.000000  0.000000      2.000000
  0.000000  0.200000  0.000000      2.000000
  0.200000  0.200000  0.000000      2.000000
  0.400000  0.200000  0.000000      2.000000
 -0.400000  0.200000  0.000000      2.000000
 -0.200000  0.200000  0.000000      2.000000
  0.000000  0.400000  0.000000      2.000000
  0.200000  0.400000  0.000000      2.000000
  0.400000  0.400000  0.000000      2.000000
 -0.400000  0.400000  0.000000      2.000000
 -0.200000  0.400000  0.000000      2.000000
 
 Following cartesian coordinates:
            Coordinates               Weight
  0.000000  0.000000  0.000000      1.000000
  0.033897  0.000000  0.000000      2.000000
  0.067794  0.000000  0.000000      2.000000
  0.000000  0.033897  0.000000      2.000000
  0.033897  0.033897  0.000000      2.000000
  0.067794  0.033897  0.000000      2.000000
 -0.067794  0.033897  0.000000      2.000000
 -0.033897  0.033897  0.000000      2.000000
  0.000000  0.067794  0.000000      2.000000
  0.033897  0.067794  0.000000      2.000000
  0.067794  0.067794  0.000000      2.000000
 -0.067794  0.067794  0.000000      2.000000
 -0.033897  0.067794  0.000000      2.000000
 
 TETIRR: Found     72 inequivalent tetrahedra from      150


--------------------------------------------------------------------------------------------------------




 Dimension of arrays:
   k-points           NKPTS =     13   k-points in BZ     NKDIM =     13   number of bands    NBANDS=    264
   number of dos      NEDOS =    301   number of ions     NIONS =     44
   non local maximal  LDIM  =      6   non local SUM 2l+1 LMDIM =     18
   total plane-waves  NPLWV = ******
   max r-space proj   IRMAX =      1   max aug-charges    IRDMAX=  56024
   dimension x,y,z NGX =    60 NGY =   60 NGZ =  480
   dimension x,y,z NGXF=   120 NGYF=  120 NGZF=  960
   support grid    NGXF=   120 NGYF=  120 NGZF=  960
   ions per type =              22  22
 NGX,Y,Z   is equivalent  to a cutoff of  16.91, 16.91, 16.91 a.u.
 NGXF,Y,Z  is equivalent  to a cutoff of  33.81, 33.81, 33.81 a.u.


 I would recommend the setting:
   dimension x,y,z NGX =    43 NGY =   43 NGZ =  344
 SYSTEM =  unknown system                          
 POSCAR =  PbS_rc_conven                           

 Startparameter for this run:
   NWRITE =      2    write-flag & timer
   PREC   = accura    normal or accurate (medium, high low for compatibility)
   ISTART =      0    job   : 0-new  1-cont  2-samecut
   ICHARG =      2    charge: 1-file 2-atom 10-const
   ISPIN  =      1    spin polarized calculation?
   LNONCOLLINEAR =      F non collinear calculations
   LSORBIT =      F    spin-orbit coupling
   INIWAV =      1    electr: 0-lowe 1-rand  2-diag
   LASPH  =      F    aspherical Exc in radial PAW
   METAGGA=      F    non-selfconsistent MetaGGA calc.

 Electronic Relaxation 1
   ENCUT  =  500.0 eV  36.75 Ry    6.06 a.u.  10.76 10.76 86.06*2*pi/ulx,y,z
   ENINI  =  500.0     initial cutoff
   ENAUG  =  391.9 eV  augmentation charge cutoff
   NELM   =    200;   NELMIN=  4; NELMDL= -5     # of ELM steps 
   EDIFF  = 0.1E-05   stopping-criterion for ELM
   LREAL  =      F    real-space projection
   NLSPLINE    = F    spline interpolate recip. space projectors
   LCOMPAT=      F    compatible to vasp.4.4
   GGA_COMPAT  = T    GGA compatible to vasp.4.4-vasp.4.6
   LMAXPAW     = -100 max onsite density
   LMAXMIX     =    2 max onsite mixed and CHGCAR
   VOSKOWN=      0    Vosko Wilk Nusair interpolation
   ROPT   =    0.00000   0.00000
 Ionic relaxation
   EDIFFG = -.1E-02   stopping-criterion for IOM
   NSW    =      0    number of steps for IOM
   NBLOCK =      1;   KBLOCK =      1    inner block; outer block 
   IBRION =     -1    ionic relax: 0-MD 1-quasi-New 2-CG
   NFREE  =      0    steps in history (QN), initial steepest desc. (CG)
   ISIF   =      2    stress and relaxation
   IWAVPR =     10    prediction:  0-non 1-charg 2-wave 3-comb
   ISYM   =      0    0-nonsym 1-usesym 2-fastsym
   LCORR  =      T    Harris-Foulkes like correction to forces

   POTIM  = 0.5000    time-step for ionic-motion
   TEIN   =    0.0    initial temperature
   TEBEG  =    0.0;   TEEND  =   0.0 temperature during run
   SMASS  =  -3.00    Nose mass-parameter (am)
   estimated Nose-frequenzy (Omega)   =  0.10E-29 period in steps =****** mass=  -0.796E-27a.u.
   SCALEE = 1.0000    scale energy and forces
   NPACO  =    256;   APACO  = 16.0  distance and # of slots for P.C.
   PSTRESS=    0.0 pullay stress

  Mass of Ions in am
   POMASS = 207.20 32.07
  Ionic Valenz
   ZVAL   =  14.00  6.00
  Atomic Wigner-Seitz radii
   RWIGS  =  -1.00 -1.00
  virtual crystal weights 
   VCA    =   1.00  1.00
   NELECT =     440.0000    total number of electrons
   NUPDOWN=      -1.0000    fix difference up-down

 DOS related values:
   EMIN   =  10.00;   EMAX   =-10.00  energy-range for DOS
   EFERMI =   0.00
   ISMEAR =    -5;   SIGMA  =   0.01  broadening in eV -4-tet -1-fermi 0-gaus

 Electronic relaxation 2 (details)
   IALGO  =     38    algorithm
   LDIAG  =      T    sub-space diagonalisation (order eigenvalues)
   LSUBROT=      F    optimize rotation matrix (better conditioning)
   TURBO    =      0    0=normal 1=particle mesh
   IRESTART =      0    0=no restart 2=restart with 2 vectors
   NREBOOT  =      0    no. of reboots
   NMIN     =      0    reboot dimension
   EREF     =   0.00    reference energy to select bands
   IMIX   =      4    mixing-type and parameters
     AMIX     =   0.40;   BMIX     =  1.00
     AMIX_MAG =   1.60;   BMIX_MAG =  1.00
     AMIN     =   0.10
     WC   =   100.;   INIMIX=   1;  MIXPRE=   1;  MAXMIX= -45

 Intra band minimization:
   WEIMIN = 0.0000     energy-eigenvalue tresh-hold
   EBREAK =  0.95E-09  absolut break condition
   DEPER  =   0.30     relativ break condition  

   TIME   =   0.40     timestep for ELM

  volume/ion in A,a.u.               =      37.35       252.03
  Fermi-wavevector in a.u.,A,eV,Ry     =   1.055175  1.993992 15.148655  1.113395
  Thomas-Fermi vector in A             =   2.190363
 
 Write flags
   LWAVE  =      F    write WAVECAR
   LCHARG =      T    write CHGCAR
   LVTOT  =      F    write LOCPOT, total local potential
   LVHAR  =      T    write LOCPOT, Hartree potential only
   LELF   =      F    write electronic localiz. function (ELF)
   LORBIT =     10    0 simple, 1 ext, 2 COOP (PROOUT)


 Dipole corrections
   LMONO  =      F    monopole corrections only (constant potential shift)
   LDIPOL =      F    correct potential (dipole corrections)
   IDIPOL =      0    1-x, 2-y, 3-z, 4-all directions 
   EPSILON=  1.0000000 bulk dielectric constant

 Core level calculations are selected ICORELEVEL =  1
 Exchange correlation treatment:
   GGA     =    PS    GGA type
   LEXCH   =    14    internal setting for exchange type
   VOSKOWN=      0    Vosko Wilk Nusair interpolation
   LHFCALC =     F    Hartree Fock is set to
   LHFONE  =     F    Hartree Fock one center treatment
   AEXX    =    0.0000 exact exchange contribution

 Linear response parameters
   LEPSILON=     F    determine dielectric tensor
   LRPA    =     F    only Hartree local field effects (RPA)
   LNABLA  =     F    use nabla operator in PAW spheres
   LVEL    =     F    velocity operator in full k-point grid
   LINTERFAST=   F  fast interpolation
   KINTER  =     0    interpolate to denser k-point grid
   CSHIFT  =0.1000    complex shift for real part using Kramers Kronig
   OMEGAMAX=  -1.0    maximum frequency
   DEG_THRESHOLD= 0.2000000E-02 threshold for treating states as degnerate
   RTIME   =    0.100 relaxation time in fs

 Orbital magnetization related:
   ORBITALMAG=     F  switch on orbital magnetization
   LCHIMAG   =     F  perturbation theory with respect to B field
   DQ        =  0.001000  dq finite difference perturbation B field



--------------------------------------------------------------------------------------------------------


 Static calculation
 charge density and potential will be updated during run
 non-spin polarized calculation
 Variant of blocked Davidson
 Davidson routine will perform the subspace rotation
 perform sub-space diagonalisation
    after iterative eigenvector-optimisation
 modified Broyden-mixing scheme, WC =      100.0
 initial mixing is a Kerker type mixing with AMIX =  0.4000 and BMIX =      1.0000
 Hartree-type preconditioning will be used
 using additional bands           44
 reciprocal scheme for non local part
 use partial core corrections
 calculate Harris-corrections to forces 
   (improved forces if not selfconsistent)
 use gradient corrections 
 use of overlap-Matrix (Vanderbilt PP)
 Fermi weights with tetrahedron method with Bloechl corrections


--------------------------------------------------------------------------------------------------------


  energy-cutoff  :      500.00
  volume of cell :     1643.25
      direct lattice vectors                 reciprocal lattice vectors
     5.900259972  0.000000000  0.000000000     0.169484057  0.000000000  0.000000000
     0.000000000  5.900259972  0.000000000     0.000000000  0.169484057  0.000000000
     0.000000000  0.000000000 47.202079773     0.000000000  0.000000000  0.021185507

  length of vectors
     5.900259972  5.900259972 47.202079773     0.169484057  0.169484057  0.021185507


 
 k-points in units of 2pi/SCALE and weight: read from INCAR                         
   0.00000000  0.00000000  0.00000000       0.040
   0.03389681  0.00000000  0.00000000       0.080
   0.06779362  0.00000000  0.00000000       0.080
   0.00000000  0.03389681  0.00000000       0.080
   0.03389681  0.03389681  0.00000000       0.080
   0.06779362  0.03389681  0.00000000       0.080
  -0.06779362  0.03389681  0.00000000       0.080
  -0.03389681  0.03389681  0.00000000       0.080
   0.00000000  0.06779362  0.00000000       0.080
   0.03389681  0.06779362  0.00000000       0.080
   0.06779362  0.06779362  0.00000000       0.080
  -0.06779362  0.06779362  0.00000000       0.080
  -0.03389681  0.06779362  0.00000000       0.080
 
 k-points in reciprocal lattice and weights: read from INCAR                         
   0.00000000  0.00000000  0.00000000       0.040
   0.20000000  0.00000000  0.00000000       0.080
   0.40000000  0.00000000  0.00000000       0.080
   0.00000000  0.20000000  0.00000000       0.080
   0.20000000  0.20000000  0.00000000       0.080
   0.40000000  0.20000000  0.00000000       0.080
  -0.40000000  0.20000000  0.00000000       0.080
  -0.20000000  0.20000000  0.00000000       0.080
   0.00000000  0.40000000  0.00000000       0.080
   0.20000000  0.40000000  0.00000000       0.080
   0.40000000  0.40000000  0.00000000       0.080
  -0.40000000  0.40000000  0.00000000       0.080
  -0.20000000  0.40000000  0.00000000       0.080
 
 position of ions in fractional coordinates (direct lattice) 
   0.00000000  0.00000000  0.00000000
   0.50000000  0.50000000  0.00000000
   0.00000000  0.50000000  0.06250000
   0.50000000  0.00000000  0.06250000
   0.00000000  0.00000000  0.12500000
   0.50000000  0.50000000  0.12500000
   0.00000000  0.50000000  0.18750000
   0.50000000  0.00000000  0.18750000
   0.00000000  0.00000000  0.25000000
   0.50000000  0.50000000  0.25000000
   0.00000000  0.50000000  0.31250000
   0.50000000  0.00000000  0.31250000
   0.00000000  0.50000000  0.68750000
   0.50000000  0.00000000  0.68750000
   0.00000000  0.00000000  0.75000000
   0.50000000  0.50000000  0.75000000
   0.00000000  0.50000000  0.81250000
   0.50000000  0.00000000  0.81250000
   0.00000000  0.00000000  0.87500000
   0.50000000  0.50000000  0.87500000
   0.00000000  0.50000000  0.93750000
   0.50000000  0.00000000  0.93750000
   0.00000000  0.50000000  0.00000000
   0.50000000  0.00000000  0.00000000
   0.00000000  0.00000000  0.06250000
   0.50000000  0.50000000  0.06250000
   0.00000000  0.50000000  0.12500000
   0.50000000  0.00000000  0.12500000
   0.00000000  0.00000000  0.18750000
   0.50000000  0.50000000  0.18750000
   0.00000000  0.50000000  0.25000000
   0.50000000  0.00000000  0.25000000
   0.00000000  0.00000000  0.31250000
   0.50000000  0.50000000  0.31250000
   0.00000000  0.00000000  0.68750000
   0.50000000  0.50000000  0.68750000
   0.00000000  0.50000000  0.75000000
   0.50000000  0.00000000  0.75000000
   0.00000000  0.00000000  0.81250000
   0.50000000  0.50000000  0.81250000
   0.00000000  0.50000000  0.87500000
   0.50000000  0.00000000  0.87500000
   0.00000000  0.00000000  0.93750000
   0.50000000  0.50000000  0.93750000
 
 position of ions in cartesian coordinates  (Angst):
   0.00000000  0.00000000  0.00000000
   2.95012999  2.95012999  0.00000000
   0.00000000  2.95012999  2.95012999
   2.95012999  0.00000000  2.95012999
   0.00000000  0.00000000  5.90025997
   2.95012999  2.95012999  5.90025997
   0.00000000  2.95012999  8.85038996
   2.95012999  0.00000000  8.85038996
   0.00000000  0.00000000 11.80051994
   2.95012999  2.95012999 11.80051994
   0.00000000  2.95012999 14.75064993
   2.95012999  0.00000000 14.75064993
   0.00000000  2.95012999 32.45142984
   2.95012999  0.00000000 32.45142984
   0.00000000  0.00000000 35.40155983
   2.95012999  2.95012999 35.40155983
   0.00000000  2.95012999 38.35168982
   2.95012999  0.00000000 38.35168982
   0.00000000  0.00000000 41.30181980
   2.95012999  2.95012999 41.30181980
   0.00000000  2.95012999 44.25194979
   2.95012999  0.00000000 44.25194979
   0.00000000  2.95012999  0.00000000
   2.95012999  0.00000000  0.00000000
   0.00000000  0.00000000  2.95012999
   2.95012999  2.95012999  2.95012999
   0.00000000  2.95012999  5.90025997
   2.95012999  0.00000000  5.90025997
   0.00000000  0.00000000  8.85038996
   2.95012999  2.95012999  8.85038996
   0.00000000  2.95012999 11.80051994
   2.95012999  0.00000000 11.80051994
   0.00000000  0.00000000 14.75064993
   2.95012999  2.95012999 14.75064993
   0.00000000  0.00000000 32.45142984
   2.95012999  2.95012999 32.45142984
   0.00000000  2.95012999 35.40155983
   2.95012999  0.00000000 35.40155983
   0.00000000  0.00000000 38.35168982
   2.95012999  2.95012999 38.35168982
   0.00000000  2.95012999 41.30181980
   2.95012999  0.00000000 41.30181980
   0.00000000  0.00000000 44.25194979
   2.95012999  2.95012999 44.25194979
 


--------------------------------------------------------------------------------------------------------


 k-point  1 :   0.0000 0.0000 0.0000  plane waves:   41633
 k-point  2 :   0.2000 0.0000 0.0000  plane waves:   41717
 k-point  3 :   0.4000 0.0000 0.0000  plane waves:   41774
 k-point  4 :   0.0000 0.2000 0.0000  plane waves:   41717
 k-point  5 :   0.2000 0.2000 0.0000  plane waves:   41689
 k-point  6 :   0.4000 0.2000 0.0000  plane waves:   41672
 k-point  7 :  -0.4000 0.2000 0.0000  plane waves:   41672
 k-point  8 :  -0.2000 0.2000 0.0000  plane waves:   41689
 k-point  9 :   0.0000 0.4000 0.0000  plane waves:   41774
 k-point 10 :   0.2000 0.4000 0.0000  plane waves:   41672
 k-point 11 :   0.4000 0.4000 0.0000  plane waves:   41754
 k-point 12 :  -0.4000 0.4000 0.0000  plane waves:   41754
 k-point 13 :  -0.2000 0.4000 0.0000  plane waves:   41672

 maximum and minimum number of plane-waves per node :      5248     5161

 maximum number of plane-waves:     41774
 maximum index in each direction: 
   IXMAX=   11   IYMAX=   10   IZMAX=   86
   IXMIN=  -11   IYMIN=  -11   IZMIN=  -86

 NGX is ok and might be reduce to  46
 NGY is ok and might be reduce to  44
 NGZ is ok and might be reduce to 346

 parallel 3D FFT for wavefunctions:
    minimum data exchange during FFTs selected (reduces bandwidth)
 parallel 3D FFT for charge:
    minimum data exchange during FFTs selected (reduces bandwidth)


 total amount of memory used by VASP on root node   515068. kBytes
========================================================================

   base      :      30000. kBytes
   nonl-proj :      23218. kBytes
   fftplans  :      64699. kBytes
   grid      :     106135. kBytes
   one-center:         93. kBytes
   wavefun   :     290923. kBytes
 
     INWAV:  cpu time    0.0000: real time    0.0003
 Broyden mixing: mesh for mixing (old mesh)
   NGX = 21   NGY = 21   NGZ =173
  (NGX  =120   NGY  =120   NGZ  =960)
  gives a total of  76293 points

 initial charge density was supplied:
 charge density of overlapping atoms calculated
 number of electron     440.0000000 magnetization 
 keeping initial charge density in first step


--------------------------------------------------------------------------------------------------------


 Maximum index for augmentation-charges         6894 (set IRDMAX)


--------------------------------------------------------------------------------------------------------


 First call to EWALD:  gamma=   0.150
 Maximum number of real-space cells 5x 5x 1
 Maximum number of reciprocal cells 2x 2x10

 FEWALD executed in parallel
    FEWALD:  cpu time    0.0800: real time    0.0771


----------------------------------------- Iteration    1(   1)  ---------------------------------------


    POTLOK:  cpu time    4.1520: real time    4.1506
    SETDIJ:  cpu time    0.3280: real time    0.3283
     EDDAV:  cpu time  697.8320: real time  698.8286
 BZINTS: Fermi energy: 17.793262;440.000000 electrons
         Band energy:1583.940823;  BLOECHL correction: -0.035276
       DOS:  cpu time    0.0440: real time    0.0424
    --------------------------------------------
      LOOP:  cpu time  702.3560: real time  703.3526

 eigenvalue-minimisations  :  6912
 total energy-change (2. order) : 0.5224012E+04  (-0.1898552E+05)
 number of electron     440.0000000 magnetization 
 augmentation part      440.0000000 magnetization 

 Free energy of the ion-electron system (eV)
  ---------------------------------------------------
  alpha Z        PSCENC =       838.54742506
  Ewald energy   TEWEN  =    163325.06872248
  -Hartree energ DENC   =   -204714.45377832
  -exchange      EXHF   =         0.00000000
  -V(xc)+E(xc)   XCENC  =      1122.82438513
  PAW double counting   =     36340.64307259   -35912.64615948
  entropy T*S    EENTRO =         0.00000000
  eigenvalues    EBANDS =      1583.94082349
  atomic energy  EATOM  =     42640.08746602
  Solvation  Ediel_sol  =         0.00000000
  ---------------------------------------------------
  free energy    TOTEN  =      5224.01195697 eV

  energy without entropy =     5224.01195697  energy(sigma->0) =     5224.01195697


--------------------------------------------------------------------------------------------------------




----------------------------------------- Iteration    1(   2)  ---------------------------------------


     EDDAV:  cpu time  638.7160: real time  639.7150
 BZINTS: Fermi energy:  6.980125;440.000000 electrons
         Band energy:***********;  BLOECHL correction: -0.171907
       DOS:  cpu time    0.0400: real time    0.0406
    --------------------------------------------
      LOOP:  cpu time  638.8800: real time  639.8815

 eigenvalue-minimisations  :  7192
 total energy-change (2. order) :-0.4550445E+04  (-0.4389980E+04)
 number of electron     440.0000000 magnetization 
 augmentation part      440.0000000 magnetization 

 Free energy of the ion-electron system (eV)
  ---------------------------------------------------
  alpha Z        PSCENC =       838.54742506
  Ewald energy   TEWEN  =    163325.06872248
  -Hartree energ DENC   =   -204714.45377832
  -exchange      EXHF   =         0.00000000
  -V(xc)+E(xc)   XCENC  =      1122.82438513
  PAW double counting   =     36340.64307259   -35912.64615948
  entropy T*S    EENTRO =         0.00000000
  eigenvalues    EBANDS =     -2966.50369813
  atomic energy  EATOM  =     42640.08746602
  Solvation  Ediel_sol  =         0.00000000
  ---------------------------------------------------
  free energy    TOTEN  =       673.56743535 eV

  energy without entropy =      673.56743535  energy(sigma->0) =      673.56743535


--------------------------------------------------------------------------------------------------------




----------------------------------------- Iteration    1(   3)  ---------------------------------------


     EDDAV:  cpu time  648.4520: real time  649.2251
 BZINTS: Fermi energy:  2.883801;440.000000 electrons
         Band energy:***********;  BLOECHL correction:  0.000000
       DOS:  cpu time    0.0080: real time    0.0082
    --------------------------------------------
      LOOP:  cpu time  648.5720: real time  649.3456

 eigenvalue-minimisations  :  8568
 total energy-change (2. order) :-0.8107250E+03  (-0.7781982E+03)
 number of electron     440.0000000 magnetization 
 augmentation part      440.0000000 magnetization 

 Free energy of the ion-electron system (eV)
  ---------------------------------------------------
  alpha Z        PSCENC =       838.54742506
  Ewald energy   TEWEN  =    163325.06872248
  -Hartree energ DENC   =   -204714.45377832
  -exchange      EXHF   =         0.00000000
  -V(xc)+E(xc)   XCENC  =      1122.82438513
  PAW double counting   =     36340.64307259   -35912.64615948
  entropy T*S    EENTRO =         0.00000000
  eigenvalues    EBANDS =     -3777.22873635
  atomic energy  EATOM  =     42640.08746602
  Solvation  Ediel_sol  =         0.00000000
  ---------------------------------------------------
  free energy    TOTEN  =      -137.15760286 eV

  energy without entropy =     -137.15760286  energy(sigma->0) =     -137.15760286


--------------------------------------------------------------------------------------------------------




----------------------------------------- Iteration    1(   4)  ---------------------------------------


     EDDAV:  cpu time  725.6040: real time  726.0302
 BZINTS: Fermi energy:  1.554843;440.000000 electrons
         Band energy:***********;  BLOECHL correction:  0.000000
       DOS:  cpu time    0.0080: real time    0.0075
    --------------------------------------------
      LOOP:  cpu time  725.7360: real time  726.1649

 eigenvalue-minimisations  :  8656
 total energy-change (2. order) :-0.7555264E+02  (-0.7438873E+02)
 number of electron     440.0000000 magnetization 
 augmentation part      440.0000000 magnetization 

 Free energy of the ion-electron system (eV)
  ---------------------------------------------------
  alpha Z        PSCENC =       838.54742506
  Ewald energy   TEWEN  =    163325.06872248
  -Hartree energ DENC   =   -204714.45377832
  -exchange      EXHF   =         0.00000000
  -V(xc)+E(xc)   XCENC  =      1122.82438513
  PAW double counting   =     36340.64307259   -35912.64615948
  entropy T*S    EENTRO =         0.00000000
  eigenvalues    EBANDS =     -3852.78137734
  atomic energy  EATOM  =     42640.08746602
  Solvation  Ediel_sol  =         0.00000000
  ---------------------------------------------------
  free energy    TOTEN  =      -212.71024386 eV

  energy without entropy =     -212.71024386  energy(sigma->0) =     -212.71024386


--------------------------------------------------------------------------------------------------------




----------------------------------------- Iteration    1(   5)  ---------------------------------------


     EDDAV:  cpu time  728.4200: real time  728.5057
 BZINTS: Fermi energy:  1.547479;440.000000 electrons
         Band energy:***********;  BLOECHL correction:  0.000000
       DOS:  cpu time    0.0080: real time    0.0084
    CHARGE:  cpu time   60.1400: real time   60.1502
    MIXING:  cpu time    0.1400: real time    0.1378
    --------------------------------------------
      LOOP:  cpu time  788.7800: real time  788.8748

 eigenvalue-minimisations  :  9312
 total energy-change (2. order) :-0.3367848E+01  (-0.3350104E+01)
 number of electron     440.0000039 magnetization 
 augmentation part      103.3542553 magnetization 

 Broyden mixing:
  rms(total) = 0.21613E+01    rms(broyden)= 0.21613E+01
  rms(prec ) = 0.21880E+01
  weight for this iteration     100.00

 Free energy of the ion-electron system (eV)
  ---------------------------------------------------
  alpha Z        PSCENC =       838.54742506
  Ewald energy   TEWEN  =    163325.06872248
  -Hartree energ DENC   =   -204714.45377832
  -exchange      EXHF   =         0.00000000
  -V(xc)+E(xc)   XCENC  =      1122.82438513
  PAW double counting   =     36340.64307259   -35912.64615948
  entropy T*S    EENTRO =         0.00000000
  eigenvalues    EBANDS =     -3856.14922540
  atomic energy  EATOM  =     42640.08746602
  Solvation  Ediel_sol  =         0.00000000
  ---------------------------------------------------
  free energy    TOTEN  =      -216.07809192 eV

  energy without entropy =     -216.07809192  energy(sigma->0) =     -216.07809192


--------------------------------------------------------------------------------------------------------




----------------------------------------- Iteration    1(   6)  ---------------------------------------


    POTLOK:  cpu time    3.7000: real time    3.7120
    SETDIJ:  cpu time    0.2280: real time    0.2275
     EDDAV:  cpu time  742.3280: real time  742.4157
 BZINTS: Fermi energy:  2.049395;440.000000 electrons
         Band energy:***********;  BLOECHL correction:  0.000000
       DOS:  cpu time    0.0080: real time    0.0090
    CHARGE:  cpu time   59.7760: real time   59.7827
    MIXING:  cpu time    0.1320: real time    0.1321
    --------------------------------------------
      LOOP:  cpu time  806.1720: real time  806.2805

 eigenvalue-minimisations  :  9776
 total energy-change (2. order) : 0.9356014E+01  (-0.2258012E+01)
 number of electron     440.0000038 magnetization 
 augmentation part      104.1819538 magnetization 

 Broyden mixing:
  rms(total) = 0.13797E+01    rms(broyden)= 0.13797E+01
  rms(prec ) = 0.13830E+01
  weight for this iteration     100.00

 eigenvalues of (default mixing * dielectric matrix)
  average eigenvalue GAMMA=   1.7768
  1.7768

 Free energy of the ion-electron system (eV)
  ---------------------------------------------------
  alpha Z        PSCENC =       838.54742506
  Ewald energy   TEWEN  =    163325.06872248
  -Hartree energ DENC   =   -204737.79925425
  -exchange      EXHF   =         0.00000000
  -V(xc)+E(xc)   XCENC  =      1127.39669851
  PAW double counting   =     37768.99545919   -37325.47980001
  entropy T*S    EENTRO =         0.00000000
  eigenvalues    EBANDS =     -3843.53879528
  atomic energy  EATOM  =     42640.08746602
  Solvation  Ediel_sol  =         0.00000000
  ---------------------------------------------------
  free energy    TOTEN  =      -206.72207827 eV

  energy without entropy =     -206.72207827  energy(sigma->0) =     -206.72207827


--------------------------------------------------------------------------------------------------------




----------------------------------------- Iteration    1(   7)  ---------------------------------------


    POTLOK:  cpu time    3.7680: real time    3.7667
    SETDIJ:  cpu time    0.1560: real time    0.1586
     EDDAV:  cpu time  670.1960: real time  670.5897
 BZINTS: Fermi energy:  2.266544;440.000000 electrons
         Band energy:***********;  BLOECHL correction:  0.000000
       DOS:  cpu time    0.0080: real time    0.0075
    CHARGE:  cpu time   50.4400: real time   50.4804
    MIXING:  cpu time    0.1200: real time    0.1229
    --------------------------------------------
      LOOP:  cpu time  724.6880: real time  725.1269

 eigenvalue-minimisations  :  9760
 total energy-change (2. order) :-0.1154497E+00  (-0.7733241E+00)
 number of electron     440.0000038 magnetization 
 augmentation part      104.2200048 magnetization 

 Broyden mixing:
  rms(total) = 0.54179E+00    rms(broyden)= 0.54179E+00
  rms(prec ) = 0.54419E+00
  weight for this iteration     100.00

 eigenvalues of (default mixing * dielectric matrix)
  average eigenvalue GAMMA=   1.7623
  1.4054  2.1192

 Free energy of the ion-electron system (eV)
  ---------------------------------------------------
  alpha Z        PSCENC =       838.54742506
  Ewald energy   TEWEN  =    163325.06872248
  -Hartree energ DENC   =   -204764.76427065
  -exchange      EXHF   =         0.00000000
  -V(xc)+E(xc)   XCENC  =      1128.96321842
  PAW double counting   =     40441.19063533   -39992.44970386
  entropy T*S    EENTRO =         0.00000000
  eigenvalues    EBANDS =     -3823.48102072
  atomic energy  EATOM  =     42640.08746602
  Solvation  Ediel_sol  =         0.00000000
  ---------------------------------------------------
  free energy    TOTEN  =      -206.83752793 eV

  energy without entropy =     -206.83752793  energy(sigma->0) =     -206.83752793


--------------------------------------------------------------------------------------------------------




----------------------------------------- Iteration    1(   8)  ---------------------------------------


    POTLOK:  cpu time    3.2360: real time    3.2390
    SETDIJ:  cpu time    0.1320: real time    0.1316
     EDDAV:  cpu time  616.8480: real time  617.1565
 BZINTS: Fermi energy:  2.258362;440.000000 electrons
         Band energy:***********;  BLOECHL correction:  0.000000
       DOS:  cpu time    0.0080: real time    0.0055
    CHARGE:  cpu time   50.2720: real time   50.2998
    MIXING:  cpu time    0.1320: real time    0.1319
    --------------------------------------------
      LOOP:  cpu time  670.6320: real time  670.9655

 eigenvalue-minimisations  :  8952
 total energy-change (2. order) : 0.8759127E-01  (-0.1660505E+00)
 number of electron     440.0000038 magnetization 
 augmentation part      103.8762691 magnetization 

 Broyden mixing:
  rms(total) = 0.93513E-01    rms(broyden)= 0.93512E-01
  rms(prec ) = 0.97320E-01
  weight for this iteration     100.00

 eigenvalues of (default mixing * dielectric matrix)
  average eigenvalue GAMMA=   1.6073
  2.3872  1.2174  1.2174

 Free energy of the ion-electron system (eV)
  ---------------------------------------------------
  alpha Z        PSCENC =       838.54742506
  Ewald energy   TEWEN  =    163325.06872248
  -Hartree energ DENC   =   -204795.34830020
  -exchange      EXHF   =         0.00000000
  -V(xc)+E(xc)   XCENC  =      1128.87883337
  PAW double counting   =     41844.65925429   -41399.80702894
  entropy T*S    EENTRO =         0.00000000
  eigenvalues    EBANDS =     -3788.83630873
  atomic energy  EATOM  =     42640.08746602
  Solvation  Ediel_sol  =         0.00000000
  ---------------------------------------------------
  free energy    TOTEN  =      -206.74993666 eV

  energy without entropy =     -206.74993666  energy(sigma->0) =     -206.74993666


--------------------------------------------------------------------------------------------------------




----------------------------------------- Iteration    1(   9)  ---------------------------------------


    POTLOK:  cpu time    3.2600: real time    3.2632
    SETDIJ:  cpu time    0.1320: real time    0.1313
     EDDAV:  cpu time  636.2240: real time  636.4069
 BZINTS: Fermi energy:  2.328670;440.000000 electrons
         Band energy:***********;  BLOECHL correction:  0.000000
       DOS:  cpu time    0.0040: real time    0.0057
    CHARGE:  cpu time   48.4000: real time   48.4138
    MIXING:  cpu time    0.1000: real time    0.0997
    --------------------------------------------
      LOOP:  cpu time  688.1200: real time  688.3222

 eigenvalue-minimisations  :  8928
 total energy-change (2. order) : 0.4138722E-01  (-0.2784345E-01)
 number of electron     440.0000038 magnetization 
 augmentation part      103.9890109 magnetization 

 Broyden mixing:
  rms(total) = 0.42203E-01    rms(broyden)= 0.42203E-01
  rms(prec ) = 0.43380E-01
  weight for this iteration     100.00

 eigenvalues of (default mixing * dielectric matrix)
  average eigenvalue GAMMA=   1.4700
  2.0021  1.6886  1.0946  1.0946

 Free energy of the ion-electron system (eV)
  ---------------------------------------------------
  alpha Z        PSCENC =       838.54742506
  Ewald energy   TEWEN  =    163325.06872248
  -Hartree energ DENC   =   -204807.21974703
  -exchange      EXHF   =         0.00000000
  -V(xc)+E(xc)   XCENC  =      1129.40439186
  PAW double counting   =     41935.38479014   -41489.23210817
  entropy T*S    EENTRO =         0.00000000
  eigenvalues    EBANDS =     -3778.74948980
  atomic energy  EATOM  =     42640.08746602
  Solvation  Ediel_sol  =         0.00000000
  ---------------------------------------------------
  free energy    TOTEN  =      -206.70854944 eV

  energy without entropy =     -206.70854944  energy(sigma->0) =     -206.70854944


--------------------------------------------------------------------------------------------------------




----------------------------------------- Iteration    1(  10)  ---------------------------------------


    POTLOK:  cpu time    3.3640: real time    3.3637
    SETDIJ:  cpu time    0.1080: real time    0.1089
     EDDAV:  cpu time  640.3040: real time  640.5793
 BZINTS: Fermi energy:  2.320674;440.000000 electrons
         Band energy:***********;  BLOECHL correction:  0.000000
       DOS:  cpu time    0.0120: real time    0.0094
    CHARGE:  cpu time   52.8600: real time   52.8671
    MIXING:  cpu time    0.1400: real time    0.1423
    --------------------------------------------
      LOOP:  cpu time  696.7880: real time  697.0725

 eigenvalue-minimisations  :  9216
 total energy-change (2. order) :-0.1487708E-02  (-0.2020560E-02)
 number of electron     440.0000038 magnetization 
 augmentation part      103.9679121 magnetization 

 Broyden mixing:
  rms(total) = 0.27191E-01    rms(broyden)= 0.27191E-01
  rms(prec ) = 0.28430E-01
  weight for this iteration     100.00

 eigenvalues of (default mixing * dielectric matrix)
  average eigenvalue GAMMA=   1.5316
  2.3030  2.3030  1.0006  1.0006  1.0510

 Free energy of the ion-electron system (eV)
  ---------------------------------------------------
  alpha Z        PSCENC =       838.54742506
  Ewald energy   TEWEN  =    163325.06872248
  -Hartree energ DENC   =   -204815.26404124
  -exchange      EXHF   =         0.00000000
  -V(xc)+E(xc)   XCENC  =      1129.36984765
  PAW double counting   =     41836.35249598   -41390.58040994
  entropy T*S    EENTRO =         0.00000000
  eigenvalues    EBANDS =     -3770.29154316
  atomic energy  EATOM  =     42640.08746602
  Solvation  Ediel_sol  =         0.00000000
  ---------------------------------------------------
  free energy    TOTEN  =      -206.71003715 eV

  energy without entropy =     -206.71003715  energy(sigma->0) =     -206.71003715


--------------------------------------------------------------------------------------------------------




----------------------------------------- Iteration    1(  11)  ---------------------------------------


    POTLOK:  cpu time    3.2400: real time    3.2426
    SETDIJ:  cpu time    0.1400: real time    0.1401
     EDDAV:  cpu time  631.2840: real time  631.4866
 BZINTS: Fermi energy:  2.347431;440.000000 electrons
         Band energy:***********;  BLOECHL correction:  0.000000
       DOS:  cpu time    0.0080: real time    0.0049
    CHARGE:  cpu time   49.0680: real time   49.0723
    MIXING:  cpu time    0.1880: real time    0.1879
    --------------------------------------------
      LOOP:  cpu time  683.9320: real time  684.1354

 eigenvalue-minimisations  :  8936
 total energy-change (2. order) : 0.4340977E-03  (-0.3833073E-03)
 number of electron     440.0000038 magnetization 
 augmentation part      103.9590339 magnetization 

 Broyden mixing:
  rms(total) = 0.10687E-01    rms(broyden)= 0.10687E-01
  rms(prec ) = 0.12000E-01
  weight for this iteration     100.00

 eigenvalues of (default mixing * dielectric matrix)
  average eigenvalue GAMMA=   1.5303
  2.5172  2.5172  1.1232  1.1232  0.9506  0.9506

 Free energy of the ion-electron system (eV)
  ---------------------------------------------------
  alpha Z        PSCENC =       838.54742506
  Ewald energy   TEWEN  =    163325.06872248
  -Hartree energ DENC   =   -204828.26507272
  -exchange      EXHF   =         0.00000000
  -V(xc)+E(xc)   XCENC  =      1129.45501642
  PAW double counting   =     41851.37751027   -41405.80912765
  entropy T*S    EENTRO =         0.00000000
  eigenvalues    EBANDS =     -3757.17154293
  atomic energy  EATOM  =     42640.08746602
  Solvation  Ediel_sol  =         0.00000000
  ---------------------------------------------------
  free energy    TOTEN  =      -206.70960305 eV

  energy without entropy =     -206.70960305  energy(sigma->0) =     -206.70960305


--------------------------------------------------------------------------------------------------------




----------------------------------------- Iteration    1(  12)  ---------------------------------------


    POTLOK:  cpu time    3.3520: real time    3.3529
    SETDIJ:  cpu time    0.1200: real time    0.1195
     EDDAV:  cpu time  628.1760: real time  628.3621
 BZINTS: Fermi energy:  2.355717;440.000000 electrons
         Band energy:***********;  BLOECHL correction:  0.000000
       DOS:  cpu time    0.0040: real time    0.0048
    CHARGE:  cpu time   49.8680: real time   49.8733
    MIXING:  cpu time    0.1360: real time    0.1332
    --------------------------------------------
      LOOP:  cpu time  681.6560: real time  681.8470

 eigenvalue-minimisations  :  9240
 total energy-change (2. order) :-0.3568858E-03  (-0.7154178E-04)
 number of electron     440.0000038 magnetization 
 augmentation part      103.9551248 magnetization 

 Broyden mixing:
  rms(total) = 0.65338E-02    rms(broyden)= 0.65338E-02
  rms(prec ) = 0.77591E-02
  weight for this iteration     100.00

 eigenvalues of (default mixing * dielectric matrix)
  average eigenvalue GAMMA=   1.6196
  2.8112  2.7131  1.4359  1.4359  0.8945  1.0233  1.0233

 Free energy of the ion-electron system (eV)
  ---------------------------------------------------
  alpha Z        PSCENC =       838.54742506
  Ewald energy   TEWEN  =    163325.06872248
  -Hartree energ DENC   =   -204835.10540693
  -exchange      EXHF   =         0.00000000
  -V(xc)+E(xc)   XCENC  =      1129.47925048
  PAW double counting   =     41829.59281528   -41384.07728944
  entropy T*S    EENTRO =         0.00000000
  eigenvalues    EBANDS =     -3750.30294289
  atomic energy  EATOM  =     42640.08746602
  Solvation  Ediel_sol  =         0.00000000
  ---------------------------------------------------
  free energy    TOTEN  =      -206.70995994 eV

  energy without entropy =     -206.70995994  energy(sigma->0) =     -206.70995994


--------------------------------------------------------------------------------------------------------




----------------------------------------- Iteration    1(  13)  ---------------------------------------


    POTLOK:  cpu time    3.3280: real time    3.3284
    SETDIJ:  cpu time    0.1640: real time    0.1647
     EDDAV:  cpu time  604.2720: real time  604.4521
 BZINTS: Fermi energy:  2.371664;440.000000 electrons
         Band energy:***********;  BLOECHL correction:  0.000000
       DOS:  cpu time    0.0160: real time    0.0139
    CHARGE:  cpu time   55.3320: real time   55.3715
    MIXING:  cpu time    0.1720: real time    0.1720
    --------------------------------------------
      LOOP:  cpu time  663.2840: real time  663.5037

 eigenvalue-minimisations  :  8528
 total energy-change (2. order) :-0.6765254E-03  (-0.7581279E-04)
 number of electron     440.0000038 magnetization 
 augmentation part      103.9540418 magnetization 

 Broyden mixing:
  rms(total) = 0.34997E-02    rms(broyden)= 0.34997E-02
  rms(prec ) = 0.43674E-02
  weight for this iteration     100.00

 eigenvalues of (default mixing * dielectric matrix)
  average eigenvalue GAMMA=   1.6186
  3.2381  2.2147  2.2147  1.0584  1.0584  1.1398  1.1398  0.8850

 Free energy of the ion-electron system (eV)
  ---------------------------------------------------
  alpha Z        PSCENC =       838.54742506
  Ewald energy   TEWEN  =    163325.06872248
  -Hartree energ DENC   =   -204844.70872963
  -exchange      EXHF   =         0.00000000
  -V(xc)+E(xc)   XCENC  =      1129.51528984
  PAW double counting   =     41828.55761763   -41383.04632923
  entropy T*S    EENTRO =         0.00000000
  eigenvalues    EBANDS =     -3740.73209863
  atomic energy  EATOM  =     42640.08746602
  Solvation  Ediel_sol  =         0.00000000
  ---------------------------------------------------
  free energy    TOTEN  =      -206.71063646 eV

  energy without entropy =     -206.71063646  energy(sigma->0) =     -206.71063646


--------------------------------------------------------------------------------------------------------




----------------------------------------- Iteration    1(  14)  ---------------------------------------


    POTLOK:  cpu time    3.9560: real time    3.9592
    SETDIJ:  cpu time    0.1520: real time    0.1537
     EDDAV:  cpu time  607.2520: real time  607.4323
 BZINTS: Fermi energy:  2.377063;440.000000 electrons
         Band energy:***********;  BLOECHL correction:  0.000000
       DOS:  cpu time    0.0040: real time    0.0069
    CHARGE:  cpu time   48.3600: real time   48.3643
    MIXING:  cpu time    0.1080: real time    0.1089
    --------------------------------------------
      LOOP:  cpu time  659.8320: real time  660.0266

 eigenvalue-minimisations  :  8504
 total energy-change (2. order) :-0.7264924E-03  (-0.2470376E-04)
 number of electron     440.0000038 magnetization 
 augmentation part      103.9547146 magnetization 

 Broyden mixing:
  rms(total) = 0.26443E-02    rms(broyden)= 0.26443E-02
  rms(prec ) = 0.32363E-02
  weight for this iteration     100.00

 eigenvalues of (default mixing * dielectric matrix)
  average eigenvalue GAMMA=   1.5470
  3.2572  2.3727  2.3727  1.0618  1.0618  1.1107  1.1107  0.8842  0.6914

 Free energy of the ion-electron system (eV)
  ---------------------------------------------------
  alpha Z        PSCENC =       838.54742506
  Ewald energy   TEWEN  =    163325.06872248
  -Hartree energ DENC   =   -204849.01035708
  -exchange      EXHF   =         0.00000000
  -V(xc)+E(xc)   XCENC  =      1129.52925990
  PAW double counting   =     41828.11414807   -41382.57063717
  entropy T*S    EENTRO =         0.00000000
  eigenvalues    EBANDS =     -3736.47739023
  atomic energy  EATOM  =     42640.08746602
  Solvation  Ediel_sol  =         0.00000000
  ---------------------------------------------------
  free energy    TOTEN  =      -206.71136295 eV

  energy without entropy =     -206.71136295  energy(sigma->0) =     -206.71136295


--------------------------------------------------------------------------------------------------------




----------------------------------------- Iteration    1(  15)  ---------------------------------------


    POTLOK:  cpu time    3.2000: real time    3.2024
    SETDIJ:  cpu time    0.1680: real time    0.1663
     EDDAV:  cpu time  562.3800: real time  562.7087
 BZINTS: Fermi energy:  2.440805;440.000000 electrons
         Band energy:***********;  BLOECHL correction:  0.000000
       DOS:  cpu time    0.0080: real time    0.0074
    CHARGE:  cpu time   50.7280: real time   50.7310
    MIXING:  cpu time    0.1600: real time    0.1607
    --------------------------------------------
      LOOP:  cpu time  616.6480: real time  616.9776

 eigenvalue-minimisations  :  7688
 total energy-change (2. order) :-0.6067909E-03  (-0.1027810E-04)
 number of electron     440.0000038 magnetization 
 augmentation part      103.9555009 magnetization 

 Broyden mixing:
  rms(total) = 0.18121E-02    rms(broyden)= 0.18121E-02
  rms(prec ) = 0.22876E-02
  weight for this iteration     100.00

 eigenvalues of (default mixing * dielectric matrix)
  average eigenvalue GAMMA=   1.6722
  3.7217  2.6567  2.6567  1.4252  1.4252  1.1059  1.1059  0.9134  0.9134  0.7979

 Free energy of the ion-electron system (eV)
  ---------------------------------------------------
  alpha Z        PSCENC =       838.54742506
  Ewald energy   TEWEN  =    163325.06872248
  -Hartree energ DENC   =   -204851.91148733
  -exchange      EXHF   =         0.00000000
  -V(xc)+E(xc)   XCENC  =      1129.53365514
  PAW double counting   =     41825.06664737   -41379.50283510
  entropy T*S    EENTRO =         0.00000000
  eigenvalues    EBANDS =     -3733.60156339
  atomic energy  EATOM  =     42640.08746602
  Solvation  Ediel_sol  =         0.00000000
  ---------------------------------------------------
  free energy    TOTEN  =      -206.71196974 eV

  energy without entropy =     -206.71196974  energy(sigma->0) =     -206.71196974


--------------------------------------------------------------------------------------------------------




----------------------------------------- Iteration    1(  16)  ---------------------------------------


    POTLOK:  cpu time    3.2080: real time    3.2095
    SETDIJ:  cpu time    0.1240: real time    0.1228
     EDDAV:  cpu time  555.0760: real time  555.2669
 BZINTS: Fermi energy:  2.448443;440.000000 electrons
         Band energy:***********;  BLOECHL correction:  0.000000
       DOS:  cpu time    0.0080: real time    0.0056
    CHARGE:  cpu time   51.0800: real time   51.0893
    MIXING:  cpu time    0.1520: real time    0.1526
    --------------------------------------------
      LOOP:  cpu time  609.6480: real time  609.8479

 eigenvalue-minimisations  :  7480
 total energy-change (2. order) :-0.8475256E-03  (-0.1237893E-04)
 number of electron     440.0000038 magnetization 
 augmentation part      103.9563148 magnetization 

 Broyden mixing:
  rms(total) = 0.10618E-02    rms(broyden)= 0.10618E-02
  rms(prec ) = 0.12820E-02
  weight for this iteration     100.00

 eigenvalues of (default mixing * dielectric matrix)
  average eigenvalue GAMMA=   1.7346
  4.8412  2.9232  2.3983  2.0595  1.0817  1.0817  1.1036  1.1036  0.8319  0.8279
  0.8279

 Free energy of the ion-electron system (eV)
  ---------------------------------------------------
  alpha Z        PSCENC =       838.54742506
  Ewald energy   TEWEN  =    163325.06872248
  -Hartree energ DENC   =   -204856.34841450
  -exchange      EXHF   =         0.00000000
  -V(xc)+E(xc)   XCENC  =      1129.54106437
  PAW double counting   =     41825.15213162   -41379.56920782
  entropy T*S    EENTRO =         0.00000000
  eigenvalues    EBANDS =     -3729.19200450
  atomic energy  EATOM  =     42640.08746602
  Solvation  Ediel_sol  =         0.00000000
  ---------------------------------------------------
  free energy    TOTEN  =      -206.71281727 eV

  energy without entropy =     -206.71281727  energy(sigma->0) =     -206.71281727


--------------------------------------------------------------------------------------------------------




----------------------------------------- Iteration    1(  17)  ---------------------------------------


    POTLOK:  cpu time    3.3200: real time    3.3215
    SETDIJ:  cpu time    0.1440: real time    0.1445
     EDDAV:  cpu time  565.4120: real time  565.6826
 BZINTS: Fermi energy:  2.448977;440.000000 electrons
         Band energy:***********;  BLOECHL correction:  0.000000
       DOS:  cpu time    0.0040: real time    0.0055
    CHARGE:  cpu time   50.9840: real time   50.9871
    MIXING:  cpu time    0.1520: real time    0.1534
    --------------------------------------------
      LOOP:  cpu time  620.0160: real time  620.2963

 eigenvalue-minimisations  :  7936
 total energy-change (2. order) :-0.3102656E-03  (-0.4463708E-05)
 number of electron     440.0000038 magnetization 
 augmentation part      103.9564930 magnetization 

 Broyden mixing:
  rms(total) = 0.93434E-03    rms(broyden)= 0.93433E-03
  rms(prec ) = 0.10293E-02
  weight for this iteration     100.00

 eigenvalues of (default mixing * dielectric matrix)
  average eigenvalue GAMMA=   1.8099
  5.9397  2.9548  2.4910  2.0084  1.2796  1.2796  1.1722  1.0182  1.0182  0.8948
  0.8948  0.7670

 Free energy of the ion-electron system (eV)
  ---------------------------------------------------
  alpha Z        PSCENC =       838.54742506
  Ewald energy   TEWEN  =    163325.06872248
  -Hartree energ DENC   =   -204858.38444182
  -exchange      EXHF   =         0.00000000
  -V(xc)+E(xc)   XCENC  =      1129.54262376
  PAW double counting   =     41824.63119950   -41379.05099520
  entropy T*S    EENTRO =         0.00000000
  eigenvalues    EBANDS =     -3727.15512733
  atomic energy  EATOM  =     42640.08746602
  Solvation  Ediel_sol  =         0.00000000
  ---------------------------------------------------
  free energy    TOTEN  =      -206.71312754 eV

  energy without entropy =     -206.71312754  energy(sigma->0) =     -206.71312754


--------------------------------------------------------------------------------------------------------




----------------------------------------- Iteration    1(  18)  ---------------------------------------


    POTLOK:  cpu time    3.3280: real time    3.3312
    SETDIJ:  cpu time    0.1280: real time    0.1272
     EDDAV:  cpu time  522.5000: real time  522.6847
 BZINTS: Fermi energy:  2.449491;440.000000 electrons
         Band energy:***********;  BLOECHL correction:  0.000000
       DOS:  cpu time    0.0040: real time    0.0056
    CHARGE:  cpu time   51.1680: real time   51.1755
    MIXING:  cpu time    0.1600: real time    0.1607
    --------------------------------------------
      LOOP:  cpu time  577.2920: real time  577.4871

 eigenvalue-minimisations  :  6848
 total energy-change (2. order) :-0.1351875E-03  (-0.2078229E-05)
 number of electron     440.0000038 magnetization 
 augmentation part      103.9566341 magnetization 

 Broyden mixing:
  rms(total) = 0.56701E-03    rms(broyden)= 0.56701E-03
  rms(prec ) = 0.63710E-03
  weight for this iteration     100.00

 eigenvalues of (default mixing * dielectric matrix)
  average eigenvalue GAMMA=   1.7819
  5.9838  3.0523  2.5622  1.5244  1.5244  1.5104  1.5104  1.0560  1.0560  0.9004
  0.9004  0.7919  0.7919

 Free energy of the ion-electron system (eV)
  ---------------------------------------------------
  alpha Z        PSCENC =       838.54742506
  Ewald energy   TEWEN  =    163325.06872248
  -Hartree energ DENC   =   -204859.56297360
  -exchange      EXHF   =         0.00000000
  -V(xc)+E(xc)   XCENC  =      1129.54497279
  PAW double counting   =     41825.14250718   -41379.55938387
  entropy T*S    EENTRO =         0.00000000
  eigenvalues    EBANDS =     -3725.98199878
  atomic energy  EATOM  =     42640.08746602
  Solvation  Ediel_sol  =         0.00000000
  ---------------------------------------------------
  free energy    TOTEN  =      -206.71326272 eV

  energy without entropy =     -206.71326272  energy(sigma->0) =     -206.71326272


--------------------------------------------------------------------------------------------------------




----------------------------------------- Iteration    1(  19)  ---------------------------------------


    POTLOK:  cpu time    3.3440: real time    3.3502
    SETDIJ:  cpu time    0.1480: real time    0.1482
     EDDAV:  cpu time  487.6480: real time  487.9067
 BZINTS: Fermi energy:  2.449336;440.000000 electrons
         Band energy:***********;  BLOECHL correction:  0.000000
       DOS:  cpu time    0.0080: real time    0.0085
    CHARGE:  cpu time   49.1000: real time   49.1150
    MIXING:  cpu time    0.1880: real time    0.1884
    --------------------------------------------
      LOOP:  cpu time  540.4360: real time  540.7180

 eigenvalue-minimisations  :  5808
 total energy-change (2. order) :-0.8695610E-04  (-0.4424262E-06)
 number of electron     440.0000038 magnetization 
 augmentation part      103.9564942 magnetization 

 Broyden mixing:
  rms(total) = 0.43478E-03    rms(broyden)= 0.43478E-03
  rms(prec ) = 0.48657E-03
  weight for this iteration     100.00

 eigenvalues of (default mixing * dielectric matrix)
  average eigenvalue GAMMA=   1.8280
  6.4327  3.0297  2.5451  2.5451  1.3034  1.3034  1.3594  1.3594  1.0554  1.0554
  1.0807  0.8815  0.8205  0.8205

 Free energy of the ion-electron system (eV)
  ---------------------------------------------------
  alpha Z        PSCENC =       838.54742506
  Ewald energy   TEWEN  =    163325.06872248
  -Hartree energ DENC   =   -204859.94325875
  -exchange      EXHF   =         0.00000000
  -V(xc)+E(xc)   XCENC  =      1129.54516533
  PAW double counting   =     41825.58185984   -41379.99968519
  entropy T*S    EENTRO =         0.00000000
  eigenvalues    EBANDS =     -3725.60104446
  atomic energy  EATOM  =     42640.08746602
  Solvation  Ediel_sol  =         0.00000000
  ---------------------------------------------------
  free energy    TOTEN  =      -206.71334968 eV

  energy without entropy =     -206.71334968  energy(sigma->0) =     -206.71334968


--------------------------------------------------------------------------------------------------------




----------------------------------------- Iteration    1(  20)  ---------------------------------------


    POTLOK:  cpu time    3.3360: real time    3.3401
    SETDIJ:  cpu time    0.1520: real time    0.1512
     EDDAV:  cpu time  473.5400: real time  473.7100
 BZINTS: Fermi energy:  2.449467;440.000000 electrons
         Band energy:***********;  BLOECHL correction:  0.000000
       DOS:  cpu time    0.0080: real time    0.0087
    CHARGE:  cpu time   70.3120: real time   70.3187
    MIXING:  cpu time    0.2000: real time    0.2004
    --------------------------------------------
      LOOP:  cpu time  547.5520: real time  547.7303

 eigenvalue-minimisations  :  5704
 total energy-change (2. order) :-0.5602884E-04  (-0.2845101E-06)
 number of electron     440.0000038 magnetization 
 augmentation part      103.9563355 magnetization 

 Broyden mixing:
  rms(total) = 0.28393E-03    rms(broyden)= 0.28393E-03
  rms(prec ) = 0.32346E-03
  weight for this iteration     100.00

 eigenvalues of (default mixing * dielectric matrix)
  average eigenvalue GAMMA=   1.8352
  6.6741  3.4216  2.5298  2.5298  1.4985  1.4985  1.5388  1.0898  1.0898  1.0143
  1.0143  0.9834  0.9834  0.8308  0.8308

 Free energy of the ion-electron system (eV)
  ---------------------------------------------------
  alpha Z        PSCENC =       838.54742506
  Ewald energy   TEWEN  =    163325.06872248
  -Hartree energ DENC   =   -204860.31523684
  -exchange      EXHF   =         0.00000000
  -V(xc)+E(xc)   XCENC  =      1129.54496963
  PAW double counting   =     41825.39090006   -41379.81217350
  entropy T*S    EENTRO =         0.00000000
  eigenvalues    EBANDS =     -3725.22547862
  atomic energy  EATOM  =     42640.08746602
  Solvation  Ediel_sol  =         0.00000000
  ---------------------------------------------------
  free energy    TOTEN  =      -206.71340571 eV

  energy without entropy =     -206.71340571  energy(sigma->0) =     -206.71340571


--------------------------------------------------------------------------------------------------------




----------------------------------------- Iteration    1(  21)  ---------------------------------------


    POTLOK:  cpu time    3.9400: real time    3.9416
    SETDIJ:  cpu time    0.2400: real time    0.2379
     EDDAV:  cpu time  601.7520: real time  601.8274
 BZINTS: Fermi energy:  2.449420;440.000000 electrons
         Band energy:***********;  BLOECHL correction:  0.000000
       DOS:  cpu time    0.0080: real time    0.0093
    CHARGE:  cpu time   70.3440: real time   70.3506
    MIXING:  cpu time    0.2720: real time    0.2707
    --------------------------------------------
      LOOP:  cpu time  676.5560: real time  676.6390

 eigenvalue-minimisations  :  5456
 total energy-change (2. order) :-0.2598115E-04  (-0.1179942E-06)
 number of electron     440.0000038 magnetization 
 augmentation part      103.9563333 magnetization 

 Broyden mixing:
  rms(total) = 0.21483E-03    rms(broyden)= 0.21483E-03
  rms(prec ) = 0.24576E-03
  weight for this iteration     100.00

 eigenvalues of (default mixing * dielectric matrix)
  average eigenvalue GAMMA=   1.8709
  6.8150  3.6971  2.5820  2.5820  2.1256  1.5639  1.5639  1.1768  1.1768  1.0289
  1.0289  1.0938  0.9426  0.9426  0.8074  0.8074

 Free energy of the ion-electron system (eV)
  ---------------------------------------------------
  alpha Z        PSCENC =       838.54742506
  Ewald energy   TEWEN  =    163325.06872248
  -Hartree energ DENC   =   -204860.51900495
  -exchange      EXHF   =         0.00000000
  -V(xc)+E(xc)   XCENC  =      1129.54488130
  PAW double counting   =     41825.58116678   -41380.00257447
  entropy T*S    EENTRO =         0.00000000
  eigenvalues    EBANDS =     -3725.02151390
  atomic energy  EATOM  =     42640.08746602
  Solvation  Ediel_sol  =         0.00000000
  ---------------------------------------------------
  free energy    TOTEN  =      -206.71343169 eV

  energy without entropy =     -206.71343169  energy(sigma->0) =     -206.71343169


--------------------------------------------------------------------------------------------------------




----------------------------------------- Iteration    1(  22)  ---------------------------------------


    POTLOK:  cpu time    4.0080: real time    4.0080
    SETDIJ:  cpu time    0.2000: real time    0.2022
     EDDAV:  cpu time  627.3240: real time  627.3989
 BZINTS: Fermi energy:  2.449509;440.000000 electrons
         Band energy:***********;  BLOECHL correction:  0.000000
       DOS:  cpu time    0.0080: real time    0.0090
    CHARGE:  cpu time   69.3440: real time   69.3537
    MIXING:  cpu time    0.1760: real time    0.1757
    --------------------------------------------
      LOOP:  cpu time  701.0600: real time  701.1484

 eigenvalue-minimisations  :  5504
 total energy-change (2. order) :-0.2729187E-04  (-0.2018742E-06)
 number of electron     440.0000038 magnetization 
 augmentation part      103.9563524 magnetization 

 Broyden mixing:
  rms(total) = 0.10456E-03    rms(broyden)= 0.10456E-03
  rms(prec ) = 0.12883E-03
  weight for this iteration     100.00

 eigenvalues of (default mixing * dielectric matrix)
  average eigenvalue GAMMA=   1.9087
  6.9792  4.3877  2.7023  2.7023  2.3297  1.6856  1.6856  1.1816  1.1816  1.0480
  1.0480  1.0982  0.9696  0.9696  0.8172  0.8172  0.8454

 Free energy of the ion-electron system (eV)
  ---------------------------------------------------
  alpha Z        PSCENC =       838.54742506
  Ewald energy   TEWEN  =    163325.06872248
  -Hartree energ DENC   =   -204860.74085478
  -exchange      EXHF   =         0.00000000
  -V(xc)+E(xc)   XCENC  =      1129.54475878
  PAW double counting   =     41825.23028286   -41379.65106147
  entropy T*S    EENTRO =         0.00000000
  eigenvalues    EBANDS =     -3724.80019794
  atomic energy  EATOM  =     42640.08746602
  Solvation  Ediel_sol  =         0.00000000
  ---------------------------------------------------
  free energy    TOTEN  =      -206.71345898 eV

  energy without entropy =     -206.71345898  energy(sigma->0) =     -206.71345898


--------------------------------------------------------------------------------------------------------




----------------------------------------- Iteration    1(  23)  ---------------------------------------


    POTLOK:  cpu time    3.9240: real time    3.9215
    SETDIJ:  cpu time    0.1840: real time    0.1847
     EDDAV:  cpu time  568.5680: real time  568.6347
 BZINTS: Fermi energy:  2.449494;440.000000 electrons
         Band energy:***********;  BLOECHL correction:  0.000000
       DOS:  cpu time    0.0080: real time    0.0083
    CHARGE:  cpu time   70.2520: real time   70.2614
    MIXING:  cpu time    0.2320: real time    0.2345
    --------------------------------------------
      LOOP:  cpu time  643.1680: real time  643.2465

 eigenvalue-minimisations  :  5176
 total energy-change (2. order) :-0.2023597E-04  (-0.4475871E-07)
 number of electron     440.0000038 magnetization 
 augmentation part      103.9563973 magnetization 

 Broyden mixing:
  rms(total) = 0.63650E-04    rms(broyden)= 0.63650E-04
  rms(prec ) = 0.78507E-04
  weight for this iteration     100.00

 eigenvalues of (default mixing * dielectric matrix)
  average eigenvalue GAMMA=   1.9667
  7.1766  5.2497  2.7465  2.5750  2.5750  1.6525  1.6525  1.8374  1.1769  1.1769
  1.0491  1.0491  1.0679  0.9972  0.8219  0.8219  0.8870  0.8870

 Free energy of the ion-electron system (eV)
  ---------------------------------------------------
  alpha Z        PSCENC =       838.54742506
  Ewald energy   TEWEN  =    163325.06872248
  -Hartree energ DENC   =   -204860.87745059
  -exchange      EXHF   =         0.00000000
  -V(xc)+E(xc)   XCENC  =      1129.54476538
  PAW double counting   =     41825.14183869   -41379.56218335
  entropy T*S    EENTRO =         0.00000000
  eigenvalues    EBANDS =     -3724.66406291
  atomic energy  EATOM  =     42640.08746602
  Solvation  Ediel_sol  =         0.00000000
  ---------------------------------------------------
  free energy    TOTEN  =      -206.71347922 eV

  energy without entropy =     -206.71347922  energy(sigma->0) =     -206.71347922


--------------------------------------------------------------------------------------------------------




----------------------------------------- Iteration    1(  24)  ---------------------------------------


    POTLOK:  cpu time    4.4320: real time    4.4356
    SETDIJ:  cpu time    0.2040: real time    0.2022
     EDDAV:  cpu time  589.2200: real time  589.2913
 BZINTS: Fermi energy:  2.449440;440.000000 electrons
         Band energy:***********;  BLOECHL correction:  0.000000
       DOS:  cpu time    0.0120: real time    0.0086
    CHARGE:  cpu time   70.0640: real time   70.0750
    MIXING:  cpu time    0.1560: real time    0.1548
    --------------------------------------------
      LOOP:  cpu time  664.0920: real time  664.1685

 eigenvalue-minimisations  :  5296
 total energy-change (2. order) :-0.2153884E-04  (-0.6739361E-07)
 number of electron     440.0000038 magnetization 
 augmentation part      103.9564365 magnetization 

 Broyden mixing:
  rms(total) = 0.62441E-04    rms(broyden)= 0.62441E-04
  rms(prec ) = 0.67144E-04
  weight for this iteration     100.00

 eigenvalues of (default mixing * dielectric matrix)
  average eigenvalue GAMMA=   2.0471
  7.0983  6.7944  3.2326  2.6671  2.2123  2.2123  1.7037  1.7037  1.3566  1.1689
[...]
  0.000   0.005   0.000  -0.000  -0.000  -0.000   0.006   0.000   0.000  -0.000  -0.000   0.000  -0.000   0.000  -0.000  -0.000
  0.000   0.000   0.001  -0.000  -0.000  -0.000   0.000   0.028   0.000   0.000  -0.000   0.000   0.000   0.000  -0.000  -0.000
 -0.000  -0.000  -0.000   0.005   0.000   0.000   0.000   0.000   0.006   0.000  -0.000  -0.000  -0.000   0.000   0.000  -0.000
  0.000   0.000  -0.000   0.000   0.001  -0.000  -0.000   0.000   0.000   0.028  -0.000   0.000   0.000  -0.000   0.000  -0.000
  0.000   0.000   0.000  -0.000  -0.000   0.000  -0.000  -0.000  -0.000  -0.000   2.014  -0.036  -0.000  -0.000  -0.000   0.000
  0.000   0.000  -0.000  -0.000  -0.000  -0.000   0.000   0.000  -0.000   0.000  -0.036   0.012  -0.000   0.000  -0.000   0.000
 -0.000   0.000  -0.000  -0.000  -0.000   0.000  -0.000   0.000  -0.000   0.000  -0.000  -0.000   0.703  -0.000   0.000  -0.057
  0.000   0.000   0.000  -0.000   0.000  -0.000   0.000   0.000   0.000  -0.000  -0.000   0.000  -0.000   0.702  -0.000  -0.000
  0.000   0.000   0.000   0.000  -0.000  -0.000  -0.000  -0.000   0.000   0.000  -0.000  -0.000   0.000  -0.000   0.703   0.000
  0.000  -0.000   0.000   0.000   0.000  -0.000  -0.000  -0.000  -0.000  -0.000   0.000   0.000  -0.057  -0.000   0.000   0.005
 -0.000  -0.000  -0.000   0.000  -0.000   0.000  -0.000   0.000  -0.000   0.000  -0.000   0.000  -0.000  -0.057  -0.000   0.000
 -0.000  -0.000  -0.000  -0.000   0.000   0.000  -0.000  -0.000  -0.000   0.000  -0.000  -0.000   0.000  -0.000  -0.057  -0.000


------------------------ aborting loop because EDIFF is reached ----------------------------------------


 


 total charge     
 
# of ion     s       p       d       tot
----------------------------------------
  1        1.474   0.522   9.845  11.841
  2        1.474   0.522   9.845  11.841
  3        1.473   0.522   9.845  11.841
  4        1.473   0.522   9.845  11.841
  5        1.474   0.522   9.845  11.842
  6        1.474   0.522   9.845  11.842
  7        1.472   0.521   9.845  11.838
  8        1.472   0.521   9.845  11.838
  9        1.476   0.521   9.846  11.844
 10        1.476   0.521   9.846  11.844
 11        1.463   0.508   9.839  11.809
 12        1.463   0.508   9.839  11.809
 13        1.463   0.508   9.839  11.809
 14        1.463   0.508   9.839  11.809
 15        1.476   0.521   9.846  11.844
 16        1.476   0.521   9.846  11.844
 17        1.472   0.521   9.845  11.838
 18        1.472   0.521   9.845  11.838
 19        1.474   0.522   9.845  11.842
 20        1.474   0.522   9.845  11.842
 21        1.473   0.522   9.845  11.841
 22        1.473   0.522   9.845  11.841
 23        1.347   2.313   0.000   3.660
 24        1.347   2.313   0.000   3.660
 25        1.347   2.313   0.000   3.660
 26        1.347   2.313   0.000   3.660
 27        1.346   2.313   0.000   3.660
 28        1.346   2.313   0.000   3.660
 29        1.348   2.313   0.000   3.661
 30        1.348   2.313   0.000   3.661
 31        1.344   2.312   0.000   3.656
 32        1.344   2.312   0.000   3.656
 33        1.347   2.302   0.000   3.649
 34        1.347   2.302   0.000   3.649
 35        1.347   2.302   0.000   3.649
 36        1.347   2.302   0.000   3.649
 37        1.344   2.312   0.000   3.656
 38        1.344   2.312   0.000   3.656
 39        1.348   2.313   0.000   3.661
 40        1.348   2.313   0.000   3.661
 41        1.346   2.313   0.000   3.660
 42        1.346   2.313   0.000   3.660
 43        1.347   2.313   0.000   3.660
 44        1.347   2.313   0.000   3.660
------------------------------------------------
tot       62.000  62.263 216.572 340.836
 
    CHARGE:  cpu time   74.7200: real time   74.7321
    FORLOC:  cpu time    1.3560: real time    1.3551
    FORNL :  cpu time  232.7360: real time  232.7632
    STRESS:  cpu time  309.5640: real time  309.5987
    FORCOR:  cpu time    5.1960: real time    5.1971
    FORHAR:  cpu time    2.2520: real time    2.2527
    MIXING:  cpu time    0.1720: real time    0.1702
    OFIELD:  cpu time    0.0000: real time    0.0001

  FORCE on cell =-STRESS in cart. coord.  units (eV):
  Direction    XX          YY          ZZ          XY          YZ          ZX
  --------------------------------------------------------------------------------------
  Alpha Z   838.54743   838.54743   838.54743
  Ewald  185641.41678185641.41678************     0.00000     0.00000     0.00000
  Hartree198312.75561198312.75561************     0.00000    -0.00000    -0.00000
  E(xc)   -1905.21712 -1905.21712 -1906.24338     0.00000     0.00000     0.00000
  Local  ************************390513.25156    -0.00000     0.00000     0.00000
  n-local  3075.89640  3075.89640  3067.37959     0.00000     0.00000    -0.00000
  augment  2307.51395  2307.51395  2304.65019    -0.00000     0.00000     0.00000
  Kinetic  4897.63962  4897.63962  4898.67488     0.00000    -0.00000    -0.00000
  Fock        0.00000     0.00000     0.00000     0.00000     0.00000     0.00000
  -------------------------------------------------------------------------------------
  Total      -3.30194    -3.30194    -6.07175    -0.00000    -0.00000    -0.00000
  in kB      -3.21941    -3.21941    -5.91999    -0.00000    -0.00000    -0.00000
  external pressure =       -4.12 kB  Pullay stress =        0.00 kB


 VOLUME and BASIS-vectors are now :
 -----------------------------------------------------------------------------
  energy-cutoff  :      500.00
  volume of cell :     1643.25
      direct lattice vectors                 reciprocal lattice vectors
     5.900259972  0.000000000  0.000000000     0.169484057  0.000000000  0.000000000
     0.000000000  5.900259972  0.000000000     0.000000000  0.169484057  0.000000000
     0.000000000  0.000000000 47.202079773     0.000000000  0.000000000  0.021185507

  length of vectors
     5.900259972  5.900259972 47.202079773     0.169484057  0.169484057  0.021185507


 FORCES acting on ions
    electron-ion (+dipol)            ewald-force                    non-local-force                 convergence-correction
 -----------------------------------------------------------------------------------------------
   -.317E-06 0.253E-06 -.346E-05   0.775E-15 -.202E-13 0.739E-12   -.283E-06 0.441E-06 0.530E-06   0.709E-06 -.785E-06 0.297E-05
   -.425E-07 -.290E-06 -.290E-05   0.336E-14 -.101E-13 -.625E-12   -.267E-06 -.118E-06 0.115E-06   0.229E-06 0.490E-06 0.280E-05
   -.493E-06 -.566E-06 -.910E+03   -.146E-14 -.260E-14 0.910E+03   0.413E-06 0.170E-07 -.235E-01   0.166E-06 0.564E-06 -.352E-04
   0.399E-06 0.179E-07 -.910E+03   0.113E-14 0.756E-14 0.910E+03   0.280E-06 0.164E-06 -.235E-01   -.751E-06 -.209E-06 -.384E-04
   -.668E-06 -.427E-06 -.182E+04   -.296E-14 -.256E-14 0.182E+04   0.307E-06 0.302E-07 0.937E-01   0.230E-06 0.392E-06 -.299E-04
   0.202E-06 0.410E-06 -.182E+04   -.379E-15 0.760E-14 0.182E+04   -.144E-07 0.127E-07 0.937E-01   -.120E-06 -.503E-06 -.301E-04
   0.735E-07 0.174E-06 -.273E+04   -.357E-14 -.312E-14 0.273E+04   -.451E-07 -.386E-08 -.346E+00   -.264E-07 -.982E-08 0.185E-04
   0.317E-06 0.231E-06 -.273E+04   -.986E-15 0.704E-14 0.273E+04   -.435E-06 -.439E-06 -.346E+00   0.136E-06 0.521E-07 0.216E-04
   -.373E-06 0.400E-06 -.364E+04   -.453E-14 -.299E-14 0.364E+04   -.658E-08 0.162E-06 0.990E+00   0.388E-06 -.652E-06 0.369E-04
   0.146E-05 -.766E-06 -.364E+04   -.195E-14 0.716E-14 0.364E+04   -.679E-06 0.116E-06 0.990E+00   -.748E-06 0.766E-06 0.389E-04
   -.156E-06 0.234E-06 -.453E+04   -.904E-14 0.677E-14 0.453E+04   0.136E-08 0.118E-07 -.543E+01   0.144E-06 -.145E-06 0.701E-04
   -.540E-06 0.985E-07 -.453E+04   -.646E-14 0.169E-13 0.453E+04   0.300E-06 -.257E-06 -.543E+01   0.664E-07 0.101E-06 0.706E-04
   -.400E-06 -.422E-06 0.453E+04   -.502E-14 -.104E-13 -.453E+04   -.229E-06 -.556E-06 0.543E+01   0.705E-06 0.996E-06 -.742E-04
   0.328E-07 0.356E-07 0.453E+04   -.244E-14 -.200E-15 -.453E+04   0.428E-07 0.144E-06 0.543E+01   -.139E-06 -.163E-06 -.755E-04
   -.224E-06 0.448E-06 0.364E+04   -.278E-14 -.250E-14 -.364E+04   -.150E-06 0.296E-06 -.990E+00   0.330E-06 -.918E-06 -.359E-04
   0.906E-07 -.400E-07 0.364E+04   -.196E-15 0.766E-14 -.364E+04   0.322E-06 -.115E-06 -.990E+00   -.514E-06 0.215E-06 -.353E-04
   -.523E-08 0.113E-06 0.273E+04   -.363E-14 -.313E-14 -.273E+04   0.516E-07 -.137E-06 0.346E+00   -.503E-07 -.801E-07 -.255E-04
   0.426E-06 -.299E-06 0.273E+04   -.105E-14 0.702E-14 -.273E+04   0.138E-07 -.477E-06 0.346E+00   -.468E-06 0.857E-06 -.251E-04
   0.137E-06 0.180E-06 0.182E+04   -.517E-14 -.362E-14 -.182E+04   -.202E-06 -.186E-06 -.937E-01   0.141E-06 0.192E-07 0.231E-04
   -.923E-08 -.458E-07 0.182E+04   -.259E-14 0.653E-14 -.182E+04   -.295E-06 0.166E-06 -.937E-01   0.290E-06 -.981E-07 0.239E-04
   -.878E-06 -.265E-06 0.910E+03   -.733E-14 0.140E-13 -.910E+03   0.192E-06 -.133E-07 0.235E-01   0.532E-06 0.335E-06 0.396E-04
   0.602E-06 0.430E-06 0.910E+03   -.475E-14 0.242E-13 -.910E+03   0.586E-06 0.274E-06 0.235E-01   -.119E-05 -.758E-06 0.396E-04
   0.214E-06 -.324E-06 -.909E-06   0.111E-13 -.299E-14 -.142E-13   -.137E-06 0.172E-06 -.737E-07   -.998E-07 0.279E-06 0.883E-06
   0.622E-06 0.363E-06 -.122E-05   0.403E-14 -.390E-15 0.142E-13   -.286E-06 -.140E-06 0.182E-06   -.443E-06 -.287E-06 0.948E-06
   -.314E-06 -.293E-07 -.390E+03   0.950E-14 -.120E-14 0.390E+03   0.160E-06 -.166E-07 -.240E-01   0.331E-06 -.104E-06 -.120E-04
   0.173E-06 -.668E-07 -.390E+03   0.240E-14 0.140E-14 0.390E+03   -.765E-07 -.822E-08 -.240E-01   -.150E-06 0.181E-06 -.121E-04
   -.264E-06 0.184E-06 -.780E+03   0.808E-14 -.676E-15 0.780E+03   0.125E-06 -.557E-07 0.105E+00   0.187E-06 -.177E-06 -.512E-05
   0.167E-06 -.299E-06 -.780E+03   0.976E-15 0.193E-14 0.780E+03   -.833E-07 0.177E-06 0.105E+00   -.467E-07 0.241E-06 -.516E-05
   0.498E-07 0.777E-07 -.117E+04   0.837E-14 -.108E-14 0.117E+04   0.149E-07 -.696E-07 -.297E+00   0.282E-07 -.132E-06 0.150E-04
   -.232E-06 0.120E-06 -.117E+04   0.126E-14 0.152E-14 0.117E+04   0.175E-06 0.527E-08 -.297E+00   0.805E-07 0.436E-07 0.155E-04
   -.182E-07 0.581E-07 -.156E+04   0.785E-14 -.909E-15 0.156E+04   0.755E-07 -.139E-06 0.120E+01   0.231E-06 0.915E-07 0.156E-04
   0.159E-06 0.516E-06 -.156E+04   0.745E-15 0.170E-14 0.156E+04   -.296E-07 -.260E-06 0.120E+01   -.248E-06 -.491E-06 0.166E-04
   0.273E-06 0.102E-06 -.196E+04   0.104E-13 -.962E-15 0.197E+04   -.138E-06 -.625E-07 -.175E+01   -.983E-07 -.878E-07 0.184E-04
   0.183E-06 0.178E-06 -.196E+04   0.331E-14 0.164E-14 0.197E+04   -.309E-06 -.196E-07 -.175E+01   -.204E-06 -.531E-07 0.180E-04
   -.435E-06 0.531E-06 0.196E+04   0.134E-13 -.320E-14 -.197E+04   0.331E-06 -.109E-06 0.175E+01   0.342E-06 -.481E-06 -.175E-04
   0.242E-06 0.151E-07 0.196E+04   0.628E-14 -.593E-15 -.197E+04   -.525E-07 -.177E-06 0.175E+01   -.175E-06 -.890E-07 -.175E-04
   -.120E-06 -.538E-06 0.156E+04   0.920E-14 -.133E-14 -.156E+04   -.562E-07 0.277E-06 -.120E+01   0.130E-06 0.497E-06 -.153E-04
   0.937E-07 0.785E-07 0.156E+04   0.210E-14 0.128E-14 -.156E+04   0.118E-06 0.434E-07 -.120E+01   -.103E-06 -.108E-06 -.147E-04
   -.173E-06 -.188E-06 0.117E+04   0.838E-14 -.105E-14 -.117E+04   0.989E-07 0.635E-07 0.297E+00   0.286E-06 0.137E-06 -.167E-04
   -.932E-07 0.391E-06 0.117E+04   0.128E-14 0.155E-14 -.117E+04   0.121E-06 -.210E-06 0.297E+00   -.389E-07 -.269E-06 -.168E-04
   -.263E-06 -.292E-06 0.780E+03   0.689E-14 -.325E-15 -.780E+03   0.196E-06 0.131E-06 -.105E+00   0.222E-07 0.140E-06 0.331E-05
   -.221E-06 0.874E-07 0.780E+03   -.211E-15 0.228E-14 -.780E+03   0.145E-06 -.770E-07 -.105E+00   0.796E-07 -.446E-07 0.339E-05
   -.348E-06 0.618E-07 0.390E+03   0.520E-14 0.148E-14 -.390E+03   0.915E-07 0.214E-07 0.240E-01   0.388E-06 -.850E-07 0.128E-04
   0.113E-06 -.187E-06 0.390E+03   -.191E-14 0.408E-14 -.390E+03   -.480E-07 0.505E-07 0.240E-01   -.210E-06 0.201E-06 0.128E-04
 -----------------------------------------------------------------------------------------------
   -.557E-06 0.743E-06 0.991E-05   0.577E-13 0.552E-13 -.455E-11   0.338E-06 -.870E-06 0.703E-06   0.346E-06 -.130E-06 -.162E-04
 
 
 POSITION                                       TOTAL-FORCE (eV/Angst)
 -----------------------------------------------------------------------------------
      0.00000      0.00000      0.00000         0.000000     -0.000000      0.000000
      2.95013      2.95013      0.00000        -0.000000      0.000000      0.000000
      0.00000      2.95013      2.95013         0.000000      0.000000     -0.002890
      2.95013      0.00000      2.95013        -0.000000     -0.000000     -0.002890
      0.00000      0.00000      5.90026        -0.000000      0.000000      0.023510
      2.95013      2.95013      5.90026         0.000000     -0.000000      0.023510
      0.00000      2.95013      8.85039        -0.000000      0.000000     -0.045146
      2.95013      0.00000      8.85039         0.000000     -0.000000     -0.045146
      0.00000      0.00000     11.80052         0.000000     -0.000000      0.363227
      2.95013      2.95013     11.80052         0.000000      0.000000      0.363227
      0.00000      2.95013     14.75065        -0.000000      0.000000     -0.356652
      2.95013      0.00000     14.75065        -0.000000     -0.000000     -0.356653
      0.00000      2.95013     32.45143         0.000000      0.000000      0.356649
      2.95013      0.00000     32.45143        -0.000000      0.000000      0.356650
      0.00000      0.00000     35.40156        -0.000000     -0.000000     -0.363226
      2.95013      2.95013     35.40156        -0.000000      0.000000     -0.363227
      0.00000      2.95013     38.35169        -0.000000     -0.000000      0.045146
      2.95013      0.00000     38.35169        -0.000000      0.000000      0.045146
      0.00000      0.00000     41.30182         0.000000      0.000000     -0.023510
      2.95013      2.95013     41.30182        -0.000000      0.000000     -0.023510
      0.00000      2.95013     44.25195        -0.000000      0.000000      0.002890
      2.95013      0.00000     44.25195        -0.000000     -0.000000      0.002890
      0.00000      2.95013      0.00000        -0.000000      0.000000      0.000000
      2.95013      0.00000      0.00000        -0.000000     -0.000000      0.000000
      0.00000      0.00000      2.95013         0.000000     -0.000000     -0.004426
      2.95013      2.95013      2.95013        -0.000000      0.000000     -0.004426
      0.00000      2.95013      5.90026         0.000000     -0.000000      0.019272
      2.95013      0.00000      5.90026         0.000000      0.000000      0.019272
      0.00000      0.00000      8.85039         0.000000     -0.000000     -0.086790
      2.95013      2.95013      8.85039         0.000000      0.000000     -0.086789
      0.00000      2.95013     11.80052         0.000000      0.000000      0.361704
      2.95013      0.00000     11.80052        -0.000000     -0.000000      0.361705
      0.00000      0.00000     14.75065         0.000000     -0.000000     -0.253676
      2.95013      2.95013     14.75065        -0.000000      0.000000     -0.253676
      0.00000      0.00000     32.45143         0.000000     -0.000000      0.253677
      2.95013      2.95013     32.45143         0.000000     -0.000000      0.253676
      0.00000      2.95013     35.40156        -0.000000      0.000000     -0.361704
      2.95013      0.00000     35.40156         0.000000      0.000000     -0.361704
      0.00000      0.00000     38.35169         0.000000      0.000000      0.086790
      2.95013      2.95013     38.35169        -0.000000     -0.000000      0.086790
      0.00000      2.95013     41.30182        -0.000000     -0.000000     -0.019272
      2.95013      0.00000     41.30182         0.000000     -0.000000     -0.019272
      0.00000      0.00000     44.25195         0.000000      0.000000      0.004426
      2.95013      2.95013     44.25195        -0.000000      0.000000      0.004426
 -----------------------------------------------------------------------------------
    total drift:                                0.000000     -0.000000     -0.000006


--------------------------------------------------------------------------------------------------------



  FREE ENERGIE OF THE ION-ELECTRON SYSTEM (eV)
  ---------------------------------------------------
  free  energy   TOTEN  =      -206.71352165 eV

  energy  without entropy=     -206.71352165  energy(sigma->0) =     -206.71352165
 


--------------------------------------------------------------------------------------------------------


    POTLOK:  cpu time    4.2760: real time    4.2758


--------------------------------------------------------------------------------------------------------


     LOOP+:  cpu time19176.8240: real time19184.4711
    4ORBIT:  cpu time    0.0000: real time    0.0000
 


 total charge     
 
# of ion     s       p       d       tot
----------------------------------------
  1        1.474   0.522   9.845  11.841
  2        1.474   0.522   9.845  11.841
  3        1.473   0.522   9.845  11.841
  4        1.473   0.522   9.845  11.841
  5        1.474   0.522   9.845  11.842
  6        1.474   0.522   9.845  11.842
  7        1.472   0.521   9.845  11.838
  8        1.472   0.521   9.845  11.838
  9        1.476   0.521   9.846  11.844
 10        1.476   0.521   9.846  11.844
 11        1.463   0.508   9.839  11.809
 12        1.463   0.508   9.839  11.809
 13        1.463   0.508   9.839  11.809
 14        1.463   0.508   9.839  11.809
 15        1.476   0.521   9.846  11.844
 16        1.476   0.521   9.846  11.844
 17        1.472   0.521   9.845  11.838
 18        1.472   0.521   9.845  11.838
 19        1.474   0.522   9.845  11.842
 20        1.474   0.522   9.845  11.842
 21        1.473   0.522   9.845  11.841
 22        1.473   0.522   9.845  11.841
 23        1.347   2.313   0.000   3.660
 24        1.347   2.313   0.000   3.660
 25        1.347   2.313   0.000   3.660
 26        1.347   2.313   0.000   3.660
 27        1.346   2.313   0.000   3.660
 28        1.346   2.313   0.000   3.660
 29        1.348   2.313   0.000   3.661
 30        1.348   2.313   0.000   3.661
 31        1.344   2.312   0.000   3.656
 32        1.344   2.312   0.000   3.656
 33        1.347   2.302   0.000   3.649
 34        1.347   2.302   0.000   3.649
 35        1.347   2.302   0.000   3.649
 36        1.347   2.302   0.000   3.649
 37        1.344   2.312   0.000   3.656
 38        1.344   2.312   0.000   3.656
 39        1.348   2.313   0.000   3.661
 40        1.348   2.313   0.000   3.661
 41        1.346   2.313   0.000   3.660
 42        1.346   2.313   0.000   3.660
 43        1.347   2.313   0.000   3.660
 44        1.347   2.313   0.000   3.660
------------------------------------------------
tot       62.000  62.263 216.572 340.836
 
 BZINTS: Fermi energy:  2.448908;440.000000 electrons
         Band energy:***********;  BLOECHL correction:  0.000000

 total amount of memory used by VASP on root node   515068. kBytes
========================================================================

   base      :      30000. kBytes
   nonl-proj :      23218. kBytes
   fftplans  :      64699. kBytes
   grid      :     106135. kBytes
   one-center:         93. kBytes
   wavefun   :     290923. kBytes
 
  
  
 General timing and accounting informations for this job:
 ========================================================
  
                  Total CPU time used (sec):    19304.396
                            User time (sec):    19044.724
                          System time (sec):      259.672
                         Elapsed time (sec):    19312.214
  
                   Maximum memory used (kb):      670840.
                   Average memory used (kb):           0.
  
                          Minor page faults:       622554
                          Major page faults:            0
                 Voluntary context switches:           20
